+ 0.1 1 2 cbr 1000 ------- 2 1.0 3.0 0 0
- 0.1 1 2 cbr 1000 ------- 2 1.0 3.0 0 0
+ 0.1 1 2 cbr 1000 ------- 2 1.0 3.0 1 1
+ 0.1 1 2 cbr 1000 ------- 2 1.0 3.0 2 2
+ 0.1 1 2 cbr 1000 ------- 2 1.0 3.0 3 3
+ 0.1 1 2 cbr 1000 ------- 2 1.0 3.0 4 4
+ 0.1 0 2 cbr 1000 ------- 3 0.0 3.0 0 5
- 0.1 0 2 cbr 1000 ------- 3 0.0 3.0 0 5
+ 0.1 0 2 cbr 1000 ------- 3 0.0 3.0 1 6
+ 0.1 0 2 cbr 1000 ------- 3 0.0 3.0 2 7
+ 0.1 0 2 cbr 1000 ------- 3 0.0 3.0 3 8
+ 0.1 0 2 cbr 1000 ------- 3 0.0 3.0 4 9
+ 0.1 4 2 cbr 1000 ------- 0 4.0 3.0 0 10
- 0.1 4 2 cbr 1000 ------- 0 4.0 3.0 0 10
+ 0.1 4 2 cbr 1000 ------- 0 4.0 3.0 1 11
+ 0.1 4 2 cbr 1000 ------- 0 4.0 3.0 2 12
+ 0.1 4 2 cbr 1000 ------- 0 4.0 3.0 3 13
+ 0.1 4 2 cbr 1000 ------- 0 4.0 3.0 4 14
- 0.102667 1 2 cbr 1000 ------- 2 1.0 3.0 1 1
- 0.102667 0 2 cbr 1000 ------- 3 0.0 3.0 1 6
- 0.102667 4 2 cbr 1000 ------- 0 4.0 3.0 1 11
- 0.105333 1 2 cbr 1000 ------- 2 1.0 3.0 2 2
- 0.105333 0 2 cbr 1000 ------- 3 0.0 3.0 2 7
- 0.105333 4 2 cbr 1000 ------- 0 4.0 3.0 2 12
- 0.108 1 2 cbr 1000 ------- 2 1.0 3.0 3 3
- 0.108 0 2 cbr 1000 ------- 3 0.0 3.0 3 8
- 0.108 4 2 cbr 1000 ------- 0 4.0 3.0 3 13
+ 0.108 1 2 cbr 1000 ------- 2 1.0 3.0 5 15
+ 0.108 1 2 cbr 1000 ------- 2 1.0 3.0 6 16
+ 0.108 1 2 cbr 1000 ------- 2 1.0 3.0 7 17
+ 0.108 1 2 cbr 1000 ------- 2 1.0 3.0 8 18
+ 0.108 1 2 cbr 1000 ------- 2 1.0 3.0 9 19
+ 0.108 0 2 cbr 1000 ------- 3 0.0 3.0 5 20
+ 0.108 0 2 cbr 1000 ------- 3 0.0 3.0 6 21
+ 0.108 0 2 cbr 1000 ------- 3 0.0 3.0 7 22
+ 0.108 0 2 cbr 1000 ------- 3 0.0 3.0 8 23
+ 0.108 0 2 cbr 1000 ------- 3 0.0 3.0 9 24
+ 0.108 4 2 cbr 1000 ------- 0 4.0 3.0 5 25
+ 0.108 4 2 cbr 1000 ------- 0 4.0 3.0 6 26
+ 0.108 4 2 cbr 1000 ------- 0 4.0 3.0 7 27
+ 0.108 4 2 cbr 1000 ------- 0 4.0 3.0 8 28
+ 0.108 4 2 cbr 1000 ------- 0 4.0 3.0 9 29
- 0.110667 1 2 cbr 1000 ------- 2 1.0 3.0 4 4
- 0.110667 0 2 cbr 1000 ------- 3 0.0 3.0 4 9
- 0.110667 4 2 cbr 1000 ------- 0 4.0 3.0 4 14
r 0.112667 1 2 cbr 1000 ------- 2 1.0 3.0 0 0
+ 0.112667 2 3 cbr 1000 ------- 2 1.0 3.0 0 0
- 0.112667 2 3 cbr 1000 ------- 2 1.0 3.0 0 0
r 0.112667 0 2 cbr 1000 ------- 3 0.0 3.0 0 5
+ 0.112667 2 3 cbr 1000 ------- 3 0.0 3.0 0 5
r 0.112667 4 2 cbr 1000 ------- 0 4.0 3.0 0 10
+ 0.112667 2 3 cbr 1000 ------- 0 4.0 3.0 0 10
- 0.113333 1 2 cbr 1000 ------- 2 1.0 3.0 5 15
- 0.113333 0 2 cbr 1000 ------- 3 0.0 3.0 5 20
- 0.113333 4 2 cbr 1000 ------- 0 4.0 3.0 5 25
r 0.115333 1 2 cbr 1000 ------- 2 1.0 3.0 1 1
+ 0.115333 2 3 cbr 1000 ------- 2 1.0 3.0 1 1
r 0.115333 0 2 cbr 1000 ------- 3 0.0 3.0 1 6
+ 0.115333 2 3 cbr 1000 ------- 3 0.0 3.0 1 6
r 0.115333 4 2 cbr 1000 ------- 0 4.0 3.0 1 11
+ 0.115333 2 3 cbr 1000 ------- 0 4.0 3.0 1 11
- 0.116 1 2 cbr 1000 ------- 2 1.0 3.0 6 16
- 0.116 0 2 cbr 1000 ------- 3 0.0 3.0 6 21
- 0.116 4 2 cbr 1000 ------- 0 4.0 3.0 6 26
+ 0.116 1 2 cbr 1000 ------- 2 1.0 3.0 10 30
+ 0.116 1 2 cbr 1000 ------- 2 1.0 3.0 11 31
+ 0.116 1 2 cbr 1000 ------- 2 1.0 3.0 12 32
+ 0.116 1 2 cbr 1000 ------- 2 1.0 3.0 13 33
+ 0.116 1 2 cbr 1000 ------- 2 1.0 3.0 14 34
+ 0.116 0 2 cbr 1000 ------- 3 0.0 3.0 10 35
+ 0.116 0 2 cbr 1000 ------- 3 0.0 3.0 11 36
+ 0.116 0 2 cbr 1000 ------- 3 0.0 3.0 12 37
+ 0.116 0 2 cbr 1000 ------- 3 0.0 3.0 13 38
+ 0.116 0 2 cbr 1000 ------- 3 0.0 3.0 14 39
+ 0.116 4 2 cbr 1000 ------- 0 4.0 3.0 10 40
+ 0.116 4 2 cbr 1000 ------- 0 4.0 3.0 11 41
+ 0.116 4 2 cbr 1000 ------- 0 4.0 3.0 12 42
+ 0.116 4 2 cbr 1000 ------- 0 4.0 3.0 13 43
+ 0.116 4 2 cbr 1000 ------- 0 4.0 3.0 14 44
r 0.118 1 2 cbr 1000 ------- 2 1.0 3.0 2 2
+ 0.118 2 3 cbr 1000 ------- 2 1.0 3.0 2 2
r 0.118 0 2 cbr 1000 ------- 3 0.0 3.0 2 7
+ 0.118 2 3 cbr 1000 ------- 3 0.0 3.0 2 7
r 0.118 4 2 cbr 1000 ------- 0 4.0 3.0 2 12
+ 0.118 2 3 cbr 1000 ------- 0 4.0 3.0 2 12
- 0.118667 1 2 cbr 1000 ------- 2 1.0 3.0 7 17
- 0.118667 0 2 cbr 1000 ------- 3 0.0 3.0 7 22
- 0.118667 4 2 cbr 1000 ------- 0 4.0 3.0 7 27
r 0.120667 1 2 cbr 1000 ------- 2 1.0 3.0 3 3
+ 0.120667 2 3 cbr 1000 ------- 2 1.0 3.0 3 3
r 0.120667 0 2 cbr 1000 ------- 3 0.0 3.0 3 8
+ 0.120667 2 3 cbr 1000 ------- 3 0.0 3.0 3 8
r 0.120667 4 2 cbr 1000 ------- 0 4.0 3.0 3 13
+ 0.120667 2 3 cbr 1000 ------- 0 4.0 3.0 3 13
- 0.120667 2 3 cbr 1000 ------- 3 0.0 3.0 0 5
- 0.121333 1 2 cbr 1000 ------- 2 1.0 3.0 8 18
- 0.121333 0 2 cbr 1000 ------- 3 0.0 3.0 8 23
- 0.121333 4 2 cbr 1000 ------- 0 4.0 3.0 8 28
r 0.123333 1 2 cbr 1000 ------- 2 1.0 3.0 4 4
+ 0.123333 2 3 cbr 1000 ------- 2 1.0 3.0 4 4
r 0.123333 0 2 cbr 1000 ------- 3 0.0 3.0 4 9
+ 0.123333 2 3 cbr 1000 ------- 3 0.0 3.0 4 9
r 0.123333 4 2 cbr 1000 ------- 0 4.0 3.0 4 14
+ 0.123333 2 3 cbr 1000 ------- 0 4.0 3.0 4 14
- 0.124 1 2 cbr 1000 ------- 2 1.0 3.0 9 19
- 0.124 0 2 cbr 1000 ------- 3 0.0 3.0 9 24
- 0.124 4 2 cbr 1000 ------- 0 4.0 3.0 9 29
+ 0.124 1 2 cbr 1000 ------- 2 1.0 3.0 15 45
+ 0.124 1 2 cbr 1000 ------- 2 1.0 3.0 16 46
+ 0.124 1 2 cbr 1000 ------- 2 1.0 3.0 17 47
+ 0.124 1 2 cbr 1000 ------- 2 1.0 3.0 18 48
+ 0.124 1 2 cbr 1000 ------- 2 1.0 3.0 19 49
+ 0.124 0 2 cbr 1000 ------- 3 0.0 3.0 15 50
+ 0.124 0 2 cbr 1000 ------- 3 0.0 3.0 16 51
+ 0.124 0 2 cbr 1000 ------- 3 0.0 3.0 17 52
+ 0.124 0 2 cbr 1000 ------- 3 0.0 3.0 18 53
+ 0.124 0 2 cbr 1000 ------- 3 0.0 3.0 19 54
+ 0.124 4 2 cbr 1000 ------- 0 4.0 3.0 15 55
+ 0.124 4 2 cbr 1000 ------- 0 4.0 3.0 16 56
+ 0.124 4 2 cbr 1000 ------- 0 4.0 3.0 17 57
+ 0.124 4 2 cbr 1000 ------- 0 4.0 3.0 18 58
+ 0.124 4 2 cbr 1000 ------- 0 4.0 3.0 19 59
r 0.126 1 2 cbr 1000 ------- 2 1.0 3.0 5 15
+ 0.126 2 3 cbr 1000 ------- 2 1.0 3.0 5 15
r 0.126 0 2 cbr 1000 ------- 3 0.0 3.0 5 20
+ 0.126 2 3 cbr 1000 ------- 3 0.0 3.0 5 20
r 0.126 4 2 cbr 1000 ------- 0 4.0 3.0 5 25
+ 0.126 2 3 cbr 1000 ------- 0 4.0 3.0 5 25
- 0.126667 1 2 cbr 1000 ------- 2 1.0 3.0 10 30
- 0.126667 0 2 cbr 1000 ------- 3 0.0 3.0 10 35
- 0.126667 4 2 cbr 1000 ------- 0 4.0 3.0 10 40
r 0.128667 1 2 cbr 1000 ------- 2 1.0 3.0 6 16
+ 0.128667 2 3 cbr 1000 ------- 2 1.0 3.0 6 16
r 0.128667 0 2 cbr 1000 ------- 3 0.0 3.0 6 21
+ 0.128667 2 3 cbr 1000 ------- 3 0.0 3.0 6 21
r 0.128667 4 2 cbr 1000 ------- 0 4.0 3.0 6 26
+ 0.128667 2 3 cbr 1000 ------- 0 4.0 3.0 6 26
- 0.128667 2 3 cbr 1000 ------- 0 4.0 3.0 0 10
- 0.129333 1 2 cbr 1000 ------- 2 1.0 3.0 11 31
- 0.129333 0 2 cbr 1000 ------- 3 0.0 3.0 11 36
- 0.129333 4 2 cbr 1000 ------- 0 4.0 3.0 11 41
r 0.131333 1 2 cbr 1000 ------- 2 1.0 3.0 7 17
+ 0.131333 2 3 cbr 1000 ------- 2 1.0 3.0 7 17
r 0.131333 0 2 cbr 1000 ------- 3 0.0 3.0 7 22
+ 0.131333 2 3 cbr 1000 ------- 3 0.0 3.0 7 22
r 0.131333 4 2 cbr 1000 ------- 0 4.0 3.0 7 27
+ 0.131333 2 3 cbr 1000 ------- 0 4.0 3.0 7 27
- 0.132 1 2 cbr 1000 ------- 2 1.0 3.0 12 32
- 0.132 0 2 cbr 1000 ------- 3 0.0 3.0 12 37
- 0.132 4 2 cbr 1000 ------- 0 4.0 3.0 12 42
+ 0.132 1 2 cbr 1000 ------- 2 1.0 3.0 20 60
+ 0.132 1 2 cbr 1000 ------- 2 1.0 3.0 21 61
+ 0.132 1 2 cbr 1000 ------- 2 1.0 3.0 22 62
+ 0.132 1 2 cbr 1000 ------- 2 1.0 3.0 23 63
+ 0.132 1 2 cbr 1000 ------- 2 1.0 3.0 24 64
+ 0.132 0 2 cbr 1000 ------- 3 0.0 3.0 20 65
+ 0.132 0 2 cbr 1000 ------- 3 0.0 3.0 21 66
+ 0.132 0 2 cbr 1000 ------- 3 0.0 3.0 22 67
+ 0.132 0 2 cbr 1000 ------- 3 0.0 3.0 23 68
+ 0.132 0 2 cbr 1000 ------- 3 0.0 3.0 24 69
+ 0.132 4 2 cbr 1000 ------- 0 4.0 3.0 20 70
+ 0.132 4 2 cbr 1000 ------- 0 4.0 3.0 21 71
+ 0.132 4 2 cbr 1000 ------- 0 4.0 3.0 22 72
+ 0.132 4 2 cbr 1000 ------- 0 4.0 3.0 23 73
+ 0.132 4 2 cbr 1000 ------- 0 4.0 3.0 24 74
r 0.134 1 2 cbr 1000 ------- 2 1.0 3.0 8 18
+ 0.134 2 3 cbr 1000 ------- 2 1.0 3.0 8 18
r 0.134 0 2 cbr 1000 ------- 3 0.0 3.0 8 23
+ 0.134 2 3 cbr 1000 ------- 3 0.0 3.0 8 23
r 0.134 4 2 cbr 1000 ------- 0 4.0 3.0 8 28
+ 0.134 2 3 cbr 1000 ------- 0 4.0 3.0 8 28
- 0.134667 1 2 cbr 1000 ------- 2 1.0 3.0 13 33
- 0.134667 0 2 cbr 1000 ------- 3 0.0 3.0 13 38
- 0.134667 4 2 cbr 1000 ------- 0 4.0 3.0 13 43
r 0.136667 1 2 cbr 1000 ------- 2 1.0 3.0 9 19
+ 0.136667 2 3 cbr 1000 ------- 2 1.0 3.0 9 19
r 0.136667 0 2 cbr 1000 ------- 3 0.0 3.0 9 24
+ 0.136667 2 3 cbr 1000 ------- 3 0.0 3.0 9 24
r 0.136667 4 2 cbr 1000 ------- 0 4.0 3.0 9 29
+ 0.136667 2 3 cbr 1000 ------- 0 4.0 3.0 9 29
- 0.136667 2 3 cbr 1000 ------- 2 1.0 3.0 1 1
- 0.137333 1 2 cbr 1000 ------- 2 1.0 3.0 14 34
- 0.137333 0 2 cbr 1000 ------- 3 0.0 3.0 14 39
- 0.137333 4 2 cbr 1000 ------- 0 4.0 3.0 14 44
r 0.139333 1 2 cbr 1000 ------- 2 1.0 3.0 10 30
+ 0.139333 2 3 cbr 1000 ------- 2 1.0 3.0 10 30
r 0.139333 0 2 cbr 1000 ------- 3 0.0 3.0 10 35
+ 0.139333 2 3 cbr 1000 ------- 3 0.0 3.0 10 35
r 0.139333 4 2 cbr 1000 ------- 0 4.0 3.0 10 40
+ 0.139333 2 3 cbr 1000 ------- 0 4.0 3.0 10 40
+ 0.14 1 2 cbr 1000 ------- 2 1.0 3.0 25 75
+ 0.14 1 2 cbr 1000 ------- 2 1.0 3.0 26 76
+ 0.14 1 2 cbr 1000 ------- 2 1.0 3.0 27 77
+ 0.14 1 2 cbr 1000 ------- 2 1.0 3.0 28 78
+ 0.14 1 2 cbr 1000 ------- 2 1.0 3.0 29 79
+ 0.14 0 2 cbr 1000 ------- 3 0.0 3.0 25 80
+ 0.14 0 2 cbr 1000 ------- 3 0.0 3.0 26 81
+ 0.14 0 2 cbr 1000 ------- 3 0.0 3.0 27 82
+ 0.14 0 2 cbr 1000 ------- 3 0.0 3.0 28 83
+ 0.14 0 2 cbr 1000 ------- 3 0.0 3.0 29 84
+ 0.14 4 2 cbr 1000 ------- 0 4.0 3.0 25 85
+ 0.14 4 2 cbr 1000 ------- 0 4.0 3.0 26 86
+ 0.14 4 2 cbr 1000 ------- 0 4.0 3.0 27 87
+ 0.14 4 2 cbr 1000 ------- 0 4.0 3.0 28 88
+ 0.14 4 2 cbr 1000 ------- 0 4.0 3.0 29 89
- 0.14 1 2 cbr 1000 ------- 2 1.0 3.0 15 45
- 0.14 0 2 cbr 1000 ------- 3 0.0 3.0 15 50
- 0.14 4 2 cbr 1000 ------- 0 4.0 3.0 15 55
r 0.140667 2 3 cbr 1000 ------- 2 1.0 3.0 0 0
r 0.142 1 2 cbr 1000 ------- 2 1.0 3.0 11 31
+ 0.142 2 3 cbr 1000 ------- 2 1.0 3.0 11 31
r 0.142 0 2 cbr 1000 ------- 3 0.0 3.0 11 36
+ 0.142 2 3 cbr 1000 ------- 3 0.0 3.0 11 36
r 0.142 4 2 cbr 1000 ------- 0 4.0 3.0 11 41
+ 0.142 2 3 cbr 1000 ------- 0 4.0 3.0 11 41
- 0.142667 1 2 cbr 1000 ------- 2 1.0 3.0 16 46
- 0.142667 0 2 cbr 1000 ------- 3 0.0 3.0 16 51
- 0.142667 4 2 cbr 1000 ------- 0 4.0 3.0 16 56
r 0.144667 1 2 cbr 1000 ------- 2 1.0 3.0 12 32
+ 0.144667 2 3 cbr 1000 ------- 2 1.0 3.0 12 32
r 0.144667 0 2 cbr 1000 ------- 3 0.0 3.0 12 37
+ 0.144667 2 3 cbr 1000 ------- 3 0.0 3.0 12 37
r 0.144667 4 2 cbr 1000 ------- 0 4.0 3.0 12 42
+ 0.144667 2 3 cbr 1000 ------- 0 4.0 3.0 12 42
- 0.144667 2 3 cbr 1000 ------- 3 0.0 3.0 1 6
- 0.145333 1 2 cbr 1000 ------- 2 1.0 3.0 17 47
- 0.145333 0 2 cbr 1000 ------- 3 0.0 3.0 17 52
- 0.145333 4 2 cbr 1000 ------- 0 4.0 3.0 17 57
r 0.147333 1 2 cbr 1000 ------- 2 1.0 3.0 13 33
+ 0.147333 2 3 cbr 1000 ------- 2 1.0 3.0 13 33
r 0.147333 0 2 cbr 1000 ------- 3 0.0 3.0 13 38
+ 0.147333 2 3 cbr 1000 ------- 3 0.0 3.0 13 38
r 0.147333 4 2 cbr 1000 ------- 0 4.0 3.0 13 43
+ 0.147333 2 3 cbr 1000 ------- 0 4.0 3.0 13 43
+ 0.148 1 2 cbr 1000 ------- 2 1.0 3.0 30 90
+ 0.148 1 2 cbr 1000 ------- 2 1.0 3.0 31 91
+ 0.148 1 2 cbr 1000 ------- 2 1.0 3.0 32 92
+ 0.148 1 2 cbr 1000 ------- 2 1.0 3.0 33 93
+ 0.148 1 2 cbr 1000 ------- 2 1.0 3.0 34 94
+ 0.148 0 2 cbr 1000 ------- 3 0.0 3.0 30 95
+ 0.148 0 2 cbr 1000 ------- 3 0.0 3.0 31 96
+ 0.148 0 2 cbr 1000 ------- 3 0.0 3.0 32 97
+ 0.148 0 2 cbr 1000 ------- 3 0.0 3.0 33 98
+ 0.148 0 2 cbr 1000 ------- 3 0.0 3.0 34 99
+ 0.148 4 2 cbr 1000 ------- 0 4.0 3.0 30 100
+ 0.148 4 2 cbr 1000 ------- 0 4.0 3.0 31 101
+ 0.148 4 2 cbr 1000 ------- 0 4.0 3.0 32 102
+ 0.148 4 2 cbr 1000 ------- 0 4.0 3.0 33 103
+ 0.148 4 2 cbr 1000 ------- 0 4.0 3.0 34 104
- 0.148 1 2 cbr 1000 ------- 2 1.0 3.0 18 48
- 0.148 0 2 cbr 1000 ------- 3 0.0 3.0 18 53
- 0.148 4 2 cbr 1000 ------- 0 4.0 3.0 18 58
r 0.148667 2 3 cbr 1000 ------- 3 0.0 3.0 0 5
r 0.15 1 2 cbr 1000 ------- 2 1.0 3.0 14 34
+ 0.15 2 3 cbr 1000 ------- 2 1.0 3.0 14 34
r 0.15 0 2 cbr 1000 ------- 3 0.0 3.0 14 39
+ 0.15 2 3 cbr 1000 ------- 3 0.0 3.0 14 39
r 0.15 4 2 cbr 1000 ------- 0 4.0 3.0 14 44
+ 0.15 2 3 cbr 1000 ------- 0 4.0 3.0 14 44
- 0.150667 1 2 cbr 1000 ------- 2 1.0 3.0 19 49
- 0.150667 0 2 cbr 1000 ------- 3 0.0 3.0 19 54
- 0.150667 4 2 cbr 1000 ------- 0 4.0 3.0 19 59
r 0.152667 1 2 cbr 1000 ------- 2 1.0 3.0 15 45
+ 0.152667 2 3 cbr 1000 ------- 2 1.0 3.0 15 45
r 0.152667 0 2 cbr 1000 ------- 3 0.0 3.0 15 50
+ 0.152667 2 3 cbr 1000 ------- 3 0.0 3.0 15 50
r 0.152667 4 2 cbr 1000 ------- 0 4.0 3.0 15 55
+ 0.152667 2 3 cbr 1000 ------- 0 4.0 3.0 15 55
- 0.152667 2 3 cbr 1000 ------- 0 4.0 3.0 1 11
- 0.153333 1 2 cbr 1000 ------- 2 1.0 3.0 20 60
- 0.153333 0 2 cbr 1000 ------- 3 0.0 3.0 20 65
- 0.153333 4 2 cbr 1000 ------- 0 4.0 3.0 20 70
r 0.155333 1 2 cbr 1000 ------- 2 1.0 3.0 16 46
+ 0.155333 2 3 cbr 1000 ------- 2 1.0 3.0 16 46
r 0.155333 0 2 cbr 1000 ------- 3 0.0 3.0 16 51
+ 0.155333 2 3 cbr 1000 ------- 3 0.0 3.0 16 51
r 0.155333 4 2 cbr 1000 ------- 0 4.0 3.0 16 56
+ 0.155333 2 3 cbr 1000 ------- 0 4.0 3.0 16 56
+ 0.156 1 2 cbr 1000 ------- 2 1.0 3.0 35 105
+ 0.156 1 2 cbr 1000 ------- 2 1.0 3.0 36 106
+ 0.156 1 2 cbr 1000 ------- 2 1.0 3.0 37 107
+ 0.156 1 2 cbr 1000 ------- 2 1.0 3.0 38 108
+ 0.156 1 2 cbr 1000 ------- 2 1.0 3.0 39 109
+ 0.156 0 2 cbr 1000 ------- 3 0.0 3.0 35 110
+ 0.156 0 2 cbr 1000 ------- 3 0.0 3.0 36 111
+ 0.156 0 2 cbr 1000 ------- 3 0.0 3.0 37 112
+ 0.156 0 2 cbr 1000 ------- 3 0.0 3.0 38 113
+ 0.156 0 2 cbr 1000 ------- 3 0.0 3.0 39 114
+ 0.156 4 2 cbr 1000 ------- 0 4.0 3.0 35 115
+ 0.156 4 2 cbr 1000 ------- 0 4.0 3.0 36 116
+ 0.156 4 2 cbr 1000 ------- 0 4.0 3.0 37 117
+ 0.156 4 2 cbr 1000 ------- 0 4.0 3.0 38 118
+ 0.156 4 2 cbr 1000 ------- 0 4.0 3.0 39 119
- 0.156 1 2 cbr 1000 ------- 2 1.0 3.0 21 61
- 0.156 0 2 cbr 1000 ------- 3 0.0 3.0 21 66
- 0.156 4 2 cbr 1000 ------- 0 4.0 3.0 21 71
r 0.156667 2 3 cbr 1000 ------- 0 4.0 3.0 0 10
r 0.158 1 2 cbr 1000 ------- 2 1.0 3.0 17 47
+ 0.158 2 3 cbr 1000 ------- 2 1.0 3.0 17 47
r 0.158 0 2 cbr 1000 ------- 3 0.0 3.0 17 52
+ 0.158 2 3 cbr 1000 ------- 3 0.0 3.0 17 52
r 0.158 4 2 cbr 1000 ------- 0 4.0 3.0 17 57
+ 0.158 2 3 cbr 1000 ------- 0 4.0 3.0 17 57
- 0.158667 1 2 cbr 1000 ------- 2 1.0 3.0 22 62
- 0.158667 0 2 cbr 1000 ------- 3 0.0 3.0 22 67
- 0.158667 4 2 cbr 1000 ------- 0 4.0 3.0 22 72
- 0.160667 2 3 cbr 1000 ------- 2 1.0 3.0 2 2
r 0.160667 1 2 cbr 1000 ------- 2 1.0 3.0 18 48
+ 0.160667 2 3 cbr 1000 ------- 2 1.0 3.0 18 48
r 0.160667 0 2 cbr 1000 ------- 3 0.0 3.0 18 53
+ 0.160667 2 3 cbr 1000 ------- 3 0.0 3.0 18 53
r 0.160667 4 2 cbr 1000 ------- 0 4.0 3.0 18 58
+ 0.160667 2 3 cbr 1000 ------- 0 4.0 3.0 18 58
- 0.161333 1 2 cbr 1000 ------- 2 1.0 3.0 23 63
- 0.161333 0 2 cbr 1000 ------- 3 0.0 3.0 23 68
- 0.161333 4 2 cbr 1000 ------- 0 4.0 3.0 23 73
r 0.163333 1 2 cbr 1000 ------- 2 1.0 3.0 19 49
+ 0.163333 2 3 cbr 1000 ------- 2 1.0 3.0 19 49
r 0.163333 0 2 cbr 1000 ------- 3 0.0 3.0 19 54
+ 0.163333 2 3 cbr 1000 ------- 3 0.0 3.0 19 54
r 0.163333 4 2 cbr 1000 ------- 0 4.0 3.0 19 59
+ 0.163333 2 3 cbr 1000 ------- 0 4.0 3.0 19 59
+ 0.164 1 2 cbr 1000 ------- 2 1.0 3.0 40 120
+ 0.164 1 2 cbr 1000 ------- 2 1.0 3.0 41 121
+ 0.164 1 2 cbr 1000 ------- 2 1.0 3.0 42 122
+ 0.164 1 2 cbr 1000 ------- 2 1.0 3.0 43 123
+ 0.164 1 2 cbr 1000 ------- 2 1.0 3.0 44 124
+ 0.164 0 2 cbr 1000 ------- 3 0.0 3.0 40 125
+ 0.164 0 2 cbr 1000 ------- 3 0.0 3.0 41 126
+ 0.164 0 2 cbr 1000 ------- 3 0.0 3.0 42 127
+ 0.164 0 2 cbr 1000 ------- 3 0.0 3.0 43 128
+ 0.164 0 2 cbr 1000 ------- 3 0.0 3.0 44 129
+ 0.164 4 2 cbr 1000 ------- 0 4.0 3.0 40 130
+ 0.164 4 2 cbr 1000 ------- 0 4.0 3.0 41 131
+ 0.164 4 2 cbr 1000 ------- 0 4.0 3.0 42 132
+ 0.164 4 2 cbr 1000 ------- 0 4.0 3.0 43 133
+ 0.164 4 2 cbr 1000 ------- 0 4.0 3.0 44 134
- 0.164 1 2 cbr 1000 ------- 2 1.0 3.0 24 64
- 0.164 0 2 cbr 1000 ------- 3 0.0 3.0 24 69
- 0.164 4 2 cbr 1000 ------- 0 4.0 3.0 24 74
r 0.164667 2 3 cbr 1000 ------- 2 1.0 3.0 1 1
r 0.166 1 2 cbr 1000 ------- 2 1.0 3.0 20 60
+ 0.166 2 3 cbr 1000 ------- 2 1.0 3.0 20 60
r 0.166 0 2 cbr 1000 ------- 3 0.0 3.0 20 65
+ 0.166 2 3 cbr 1000 ------- 3 0.0 3.0 20 65
r 0.166 4 2 cbr 1000 ------- 0 4.0 3.0 20 70
+ 0.166 2 3 cbr 1000 ------- 0 4.0 3.0 20 70
- 0.166667 1 2 cbr 1000 ------- 2 1.0 3.0 25 75
- 0.166667 0 2 cbr 1000 ------- 3 0.0 3.0 25 80
- 0.166667 4 2 cbr 1000 ------- 0 4.0 3.0 25 85
- 0.168667 2 3 cbr 1000 ------- 3 0.0 3.0 2 7
r 0.168667 1 2 cbr 1000 ------- 2 1.0 3.0 21 61
+ 0.168667 2 3 cbr 1000 ------- 2 1.0 3.0 21 61
r 0.168667 0 2 cbr 1000 ------- 3 0.0 3.0 21 66
+ 0.168667 2 3 cbr 1000 ------- 3 0.0 3.0 21 66
r 0.168667 4 2 cbr 1000 ------- 0 4.0 3.0 21 71
+ 0.168667 2 3 cbr 1000 ------- 0 4.0 3.0 21 71
- 0.169333 1 2 cbr 1000 ------- 2 1.0 3.0 26 76
- 0.169333 0 2 cbr 1000 ------- 3 0.0 3.0 26 81
- 0.169333 4 2 cbr 1000 ------- 0 4.0 3.0 26 86
r 0.171333 1 2 cbr 1000 ------- 2 1.0 3.0 22 62
+ 0.171333 2 3 cbr 1000 ------- 2 1.0 3.0 22 62
r 0.171333 0 2 cbr 1000 ------- 3 0.0 3.0 22 67
+ 0.171333 2 3 cbr 1000 ------- 3 0.0 3.0 22 67
r 0.171333 4 2 cbr 1000 ------- 0 4.0 3.0 22 72
+ 0.171333 2 3 cbr 1000 ------- 0 4.0 3.0 22 72
+ 0.172 1 2 cbr 1000 ------- 2 1.0 3.0 45 135
+ 0.172 1 2 cbr 1000 ------- 2 1.0 3.0 46 136
+ 0.172 1 2 cbr 1000 ------- 2 1.0 3.0 47 137
+ 0.172 1 2 cbr 1000 ------- 2 1.0 3.0 48 138
+ 0.172 1 2 cbr 1000 ------- 2 1.0 3.0 49 139
+ 0.172 0 2 cbr 1000 ------- 3 0.0 3.0 45 140
+ 0.172 0 2 cbr 1000 ------- 3 0.0 3.0 46 141
+ 0.172 0 2 cbr 1000 ------- 3 0.0 3.0 47 142
+ 0.172 0 2 cbr 1000 ------- 3 0.0 3.0 48 143
+ 0.172 0 2 cbr 1000 ------- 3 0.0 3.0 49 144
+ 0.172 4 2 cbr 1000 ------- 0 4.0 3.0 45 145
+ 0.172 4 2 cbr 1000 ------- 0 4.0 3.0 46 146
+ 0.172 4 2 cbr 1000 ------- 0 4.0 3.0 47 147
+ 0.172 4 2 cbr 1000 ------- 0 4.0 3.0 48 148
+ 0.172 4 2 cbr 1000 ------- 0 4.0 3.0 49 149
- 0.172 1 2 cbr 1000 ------- 2 1.0 3.0 27 77
- 0.172 0 2 cbr 1000 ------- 3 0.0 3.0 27 82
- 0.172 4 2 cbr 1000 ------- 0 4.0 3.0 27 87
r 0.172667 2 3 cbr 1000 ------- 3 0.0 3.0 1 6
r 0.174 1 2 cbr 1000 ------- 2 1.0 3.0 23 63
+ 0.174 2 3 cbr 1000 ------- 2 1.0 3.0 23 63
r 0.174 0 2 cbr 1000 ------- 3 0.0 3.0 23 68
+ 0.174 2 3 cbr 1000 ------- 3 0.0 3.0 23 68
r 0.174 4 2 cbr 1000 ------- 0 4.0 3.0 23 73
+ 0.174 2 3 cbr 1000 ------- 0 4.0 3.0 23 73
- 0.174667 1 2 cbr 1000 ------- 2 1.0 3.0 28 78
- 0.174667 0 2 cbr 1000 ------- 3 0.0 3.0 28 83
- 0.174667 4 2 cbr 1000 ------- 0 4.0 3.0 28 88
- 0.176667 2 3 cbr 1000 ------- 0 4.0 3.0 2 12
r 0.176667 1 2 cbr 1000 ------- 2 1.0 3.0 24 64
+ 0.176667 2 3 cbr 1000 ------- 2 1.0 3.0 24 64
r 0.176667 0 2 cbr 1000 ------- 3 0.0 3.0 24 69
+ 0.176667 2 3 cbr 1000 ------- 3 0.0 3.0 24 69
r 0.176667 4 2 cbr 1000 ------- 0 4.0 3.0 24 74
+ 0.176667 2 3 cbr 1000 ------- 0 4.0 3.0 24 74
- 0.177333 1 2 cbr 1000 ------- 2 1.0 3.0 29 79
- 0.177333 0 2 cbr 1000 ------- 3 0.0 3.0 29 84
- 0.177333 4 2 cbr 1000 ------- 0 4.0 3.0 29 89
r 0.179333 1 2 cbr 1000 ------- 2 1.0 3.0 25 75
+ 0.179333 2 3 cbr 1000 ------- 2 1.0 3.0 25 75
r 0.179333 0 2 cbr 1000 ------- 3 0.0 3.0 25 80
+ 0.179333 2 3 cbr 1000 ------- 3 0.0 3.0 25 80
r 0.179333 4 2 cbr 1000 ------- 0 4.0 3.0 25 85
+ 0.179333 2 3 cbr 1000 ------- 0 4.0 3.0 25 85
+ 0.18 1 2 cbr 1000 ------- 2 1.0 3.0 50 150
+ 0.18 1 2 cbr 1000 ------- 2 1.0 3.0 51 151
+ 0.18 1 2 cbr 1000 ------- 2 1.0 3.0 52 152
+ 0.18 1 2 cbr 1000 ------- 2 1.0 3.0 53 153
+ 0.18 1 2 cbr 1000 ------- 2 1.0 3.0 54 154
+ 0.18 0 2 cbr 1000 ------- 3 0.0 3.0 50 155
+ 0.18 0 2 cbr 1000 ------- 3 0.0 3.0 51 156
+ 0.18 0 2 cbr 1000 ------- 3 0.0 3.0 52 157
+ 0.18 0 2 cbr 1000 ------- 3 0.0 3.0 53 158
+ 0.18 0 2 cbr 1000 ------- 3 0.0 3.0 54 159
+ 0.18 4 2 cbr 1000 ------- 0 4.0 3.0 50 160
+ 0.18 4 2 cbr 1000 ------- 0 4.0 3.0 51 161
+ 0.18 4 2 cbr 1000 ------- 0 4.0 3.0 52 162
+ 0.18 4 2 cbr 1000 ------- 0 4.0 3.0 53 163
+ 0.18 4 2 cbr 1000 ------- 0 4.0 3.0 54 164
- 0.18 1 2 cbr 1000 ------- 2 1.0 3.0 30 90
- 0.18 0 2 cbr 1000 ------- 3 0.0 3.0 30 95
- 0.18 4 2 cbr 1000 ------- 0 4.0 3.0 30 100
r 0.180667 2 3 cbr 1000 ------- 0 4.0 3.0 1 11
r 0.182 1 2 cbr 1000 ------- 2 1.0 3.0 26 76
+ 0.182 2 3 cbr 1000 ------- 2 1.0 3.0 26 76
r 0.182 0 2 cbr 1000 ------- 3 0.0 3.0 26 81
+ 0.182 2 3 cbr 1000 ------- 3 0.0 3.0 26 81
r 0.182 4 2 cbr 1000 ------- 0 4.0 3.0 26 86
+ 0.182 2 3 cbr 1000 ------- 0 4.0 3.0 26 86
- 0.182667 1 2 cbr 1000 ------- 2 1.0 3.0 31 91
- 0.182667 0 2 cbr 1000 ------- 3 0.0 3.0 31 96
- 0.182667 4 2 cbr 1000 ------- 0 4.0 3.0 31 101
- 0.184667 2 3 cbr 1000 ------- 2 1.0 3.0 3 3
r 0.184667 1 2 cbr 1000 ------- 2 1.0 3.0 27 77
+ 0.184667 2 3 cbr 1000 ------- 2 1.0 3.0 27 77
r 0.184667 0 2 cbr 1000 ------- 3 0.0 3.0 27 82
+ 0.184667 2 3 cbr 1000 ------- 3 0.0 3.0 27 82
r 0.184667 4 2 cbr 1000 ------- 0 4.0 3.0 27 87
+ 0.184667 2 3 cbr 1000 ------- 0 4.0 3.0 27 87
- 0.185333 1 2 cbr 1000 ------- 2 1.0 3.0 32 92
- 0.185333 0 2 cbr 1000 ------- 3 0.0 3.0 32 97
- 0.185333 4 2 cbr 1000 ------- 0 4.0 3.0 32 102
r 0.187333 1 2 cbr 1000 ------- 2 1.0 3.0 28 78
+ 0.187333 2 3 cbr 1000 ------- 2 1.0 3.0 28 78
r 0.187333 0 2 cbr 1000 ------- 3 0.0 3.0 28 83
+ 0.187333 2 3 cbr 1000 ------- 3 0.0 3.0 28 83
r 0.187333 4 2 cbr 1000 ------- 0 4.0 3.0 28 88
+ 0.187333 2 3 cbr 1000 ------- 0 4.0 3.0 28 88
+ 0.188 1 2 cbr 1000 ------- 2 1.0 3.0 55 165
+ 0.188 1 2 cbr 1000 ------- 2 1.0 3.0 56 166
+ 0.188 1 2 cbr 1000 ------- 2 1.0 3.0 57 167
+ 0.188 1 2 cbr 1000 ------- 2 1.0 3.0 58 168
+ 0.188 1 2 cbr 1000 ------- 2 1.0 3.0 59 169
+ 0.188 0 2 cbr 1000 ------- 3 0.0 3.0 55 170
+ 0.188 0 2 cbr 1000 ------- 3 0.0 3.0 56 171
+ 0.188 0 2 cbr 1000 ------- 3 0.0 3.0 57 172
+ 0.188 0 2 cbr 1000 ------- 3 0.0 3.0 58 173
+ 0.188 0 2 cbr 1000 ------- 3 0.0 3.0 59 174
+ 0.188 4 2 cbr 1000 ------- 0 4.0 3.0 55 175
+ 0.188 4 2 cbr 1000 ------- 0 4.0 3.0 56 176
+ 0.188 4 2 cbr 1000 ------- 0 4.0 3.0 57 177
+ 0.188 4 2 cbr 1000 ------- 0 4.0 3.0 58 178
+ 0.188 4 2 cbr 1000 ------- 0 4.0 3.0 59 179
- 0.188 1 2 cbr 1000 ------- 2 1.0 3.0 33 93
- 0.188 0 2 cbr 1000 ------- 3 0.0 3.0 33 98
- 0.188 4 2 cbr 1000 ------- 0 4.0 3.0 33 103
r 0.188667 2 3 cbr 1000 ------- 2 1.0 3.0 2 2
r 0.19 1 2 cbr 1000 ------- 2 1.0 3.0 29 79
+ 0.19 2 3 cbr 1000 ------- 2 1.0 3.0 29 79
r 0.19 0 2 cbr 1000 ------- 3 0.0 3.0 29 84
+ 0.19 2 3 cbr 1000 ------- 3 0.0 3.0 29 84
r 0.19 4 2 cbr 1000 ------- 0 4.0 3.0 29 89
+ 0.19 2 3 cbr 1000 ------- 0 4.0 3.0 29 89
- 0.190667 1 2 cbr 1000 ------- 2 1.0 3.0 34 94
- 0.190667 0 2 cbr 1000 ------- 3 0.0 3.0 34 99
- 0.190667 4 2 cbr 1000 ------- 0 4.0 3.0 34 104
- 0.192667 2 3 cbr 1000 ------- 3 0.0 3.0 3 8
r 0.192667 1 2 cbr 1000 ------- 2 1.0 3.0 30 90
+ 0.192667 2 3 cbr 1000 ------- 2 1.0 3.0 30 90
r 0.192667 0 2 cbr 1000 ------- 3 0.0 3.0 30 95
+ 0.192667 2 3 cbr 1000 ------- 3 0.0 3.0 30 95
r 0.192667 4 2 cbr 1000 ------- 0 4.0 3.0 30 100
+ 0.192667 2 3 cbr 1000 ------- 0 4.0 3.0 30 100
- 0.193333 1 2 cbr 1000 ------- 2 1.0 3.0 35 105
- 0.193333 0 2 cbr 1000 ------- 3 0.0 3.0 35 110
- 0.193333 4 2 cbr 1000 ------- 0 4.0 3.0 35 115
r 0.195333 1 2 cbr 1000 ------- 2 1.0 3.0 31 91
+ 0.195333 2 3 cbr 1000 ------- 2 1.0 3.0 31 91
r 0.195333 0 2 cbr 1000 ------- 3 0.0 3.0 31 96
+ 0.195333 2 3 cbr 1000 ------- 3 0.0 3.0 31 96
r 0.195333 4 2 cbr 1000 ------- 0 4.0 3.0 31 101
+ 0.195333 2 3 cbr 1000 ------- 0 4.0 3.0 31 101
+ 0.196 1 2 cbr 1000 ------- 2 1.0 3.0 60 180
+ 0.196 1 2 cbr 1000 ------- 2 1.0 3.0 61 181
+ 0.196 1 2 cbr 1000 ------- 2 1.0 3.0 62 182
+ 0.196 1 2 cbr 1000 ------- 2 1.0 3.0 63 183
+ 0.196 1 2 cbr 1000 ------- 2 1.0 3.0 64 184
+ 0.196 0 2 cbr 1000 ------- 3 0.0 3.0 60 185
+ 0.196 0 2 cbr 1000 ------- 3 0.0 3.0 61 186
+ 0.196 0 2 cbr 1000 ------- 3 0.0 3.0 62 187
+ 0.196 0 2 cbr 1000 ------- 3 0.0 3.0 63 188
+ 0.196 0 2 cbr 1000 ------- 3 0.0 3.0 64 189
+ 0.196 4 2 cbr 1000 ------- 0 4.0 3.0 60 190
+ 0.196 4 2 cbr 1000 ------- 0 4.0 3.0 61 191
+ 0.196 4 2 cbr 1000 ------- 0 4.0 3.0 62 192
+ 0.196 4 2 cbr 1000 ------- 0 4.0 3.0 63 193
+ 0.196 4 2 cbr 1000 ------- 0 4.0 3.0 64 194
- 0.196 1 2 cbr 1000 ------- 2 1.0 3.0 36 106
- 0.196 0 2 cbr 1000 ------- 3 0.0 3.0 36 111
- 0.196 4 2 cbr 1000 ------- 0 4.0 3.0 36 116
r 0.196667 2 3 cbr 1000 ------- 3 0.0 3.0 2 7
r 0.198 1 2 cbr 1000 ------- 2 1.0 3.0 32 92
+ 0.198 2 3 cbr 1000 ------- 2 1.0 3.0 32 92
r 0.198 0 2 cbr 1000 ------- 3 0.0 3.0 32 97
+ 0.198 2 3 cbr 1000 ------- 3 0.0 3.0 32 97
r 0.198 4 2 cbr 1000 ------- 0 4.0 3.0 32 102
+ 0.198 2 3 cbr 1000 ------- 0 4.0 3.0 32 102
- 0.198667 1 2 cbr 1000 ------- 2 1.0 3.0 37 107
- 0.198667 0 2 cbr 1000 ------- 3 0.0 3.0 37 112
- 0.198667 4 2 cbr 1000 ------- 0 4.0 3.0 37 117
- 0.200667 2 3 cbr 1000 ------- 0 4.0 3.0 3 13
r 0.200667 1 2 cbr 1000 ------- 2 1.0 3.0 33 93
+ 0.200667 2 3 cbr 1000 ------- 2 1.0 3.0 33 93
r 0.200667 0 2 cbr 1000 ------- 3 0.0 3.0 33 98
+ 0.200667 2 3 cbr 1000 ------- 3 0.0 3.0 33 98
r 0.200667 4 2 cbr 1000 ------- 0 4.0 3.0 33 103
+ 0.200667 2 3 cbr 1000 ------- 0 4.0 3.0 33 103
- 0.201333 1 2 cbr 1000 ------- 2 1.0 3.0 38 108
- 0.201333 0 2 cbr 1000 ------- 3 0.0 3.0 38 113
- 0.201333 4 2 cbr 1000 ------- 0 4.0 3.0 38 118
r 0.203333 1 2 cbr 1000 ------- 2 1.0 3.0 34 94
+ 0.203333 2 3 cbr 1000 ------- 2 1.0 3.0 34 94
r 0.203333 0 2 cbr 1000 ------- 3 0.0 3.0 34 99
+ 0.203333 2 3 cbr 1000 ------- 3 0.0 3.0 34 99
r 0.203333 4 2 cbr 1000 ------- 0 4.0 3.0 34 104
+ 0.203333 2 3 cbr 1000 ------- 0 4.0 3.0 34 104
+ 0.204 1 2 cbr 1000 ------- 2 1.0 3.0 65 195
+ 0.204 1 2 cbr 1000 ------- 2 1.0 3.0 66 196
+ 0.204 1 2 cbr 1000 ------- 2 1.0 3.0 67 197
+ 0.204 1 2 cbr 1000 ------- 2 1.0 3.0 68 198
+ 0.204 1 2 cbr 1000 ------- 2 1.0 3.0 69 199
+ 0.204 0 2 cbr 1000 ------- 3 0.0 3.0 65 200
+ 0.204 0 2 cbr 1000 ------- 3 0.0 3.0 66 201
+ 0.204 0 2 cbr 1000 ------- 3 0.0 3.0 67 202
+ 0.204 0 2 cbr 1000 ------- 3 0.0 3.0 68 203
+ 0.204 0 2 cbr 1000 ------- 3 0.0 3.0 69 204
+ 0.204 4 2 cbr 1000 ------- 0 4.0 3.0 65 205
+ 0.204 4 2 cbr 1000 ------- 0 4.0 3.0 66 206
+ 0.204 4 2 cbr 1000 ------- 0 4.0 3.0 67 207
+ 0.204 4 2 cbr 1000 ------- 0 4.0 3.0 68 208
+ 0.204 4 2 cbr 1000 ------- 0 4.0 3.0 69 209
- 0.204 1 2 cbr 1000 ------- 2 1.0 3.0 39 109
- 0.204 0 2 cbr 1000 ------- 3 0.0 3.0 39 114
- 0.204 4 2 cbr 1000 ------- 0 4.0 3.0 39 119
r 0.204667 2 3 cbr 1000 ------- 0 4.0 3.0 2 12
r 0.206 1 2 cbr 1000 ------- 2 1.0 3.0 35 105
+ 0.206 2 3 cbr 1000 ------- 2 1.0 3.0 35 105
r 0.206 0 2 cbr 1000 ------- 3 0.0 3.0 35 110
+ 0.206 2 3 cbr 1000 ------- 3 0.0 3.0 35 110
r 0.206 4 2 cbr 1000 ------- 0 4.0 3.0 35 115
+ 0.206 2 3 cbr 1000 ------- 0 4.0 3.0 35 115
- 0.206667 1 2 cbr 1000 ------- 2 1.0 3.0 40 120
- 0.206667 0 2 cbr 1000 ------- 3 0.0 3.0 40 125
- 0.206667 4 2 cbr 1000 ------- 0 4.0 3.0 40 130
- 0.208667 2 3 cbr 1000 ------- 2 1.0 3.0 4 4
r 0.208667 1 2 cbr 1000 ------- 2 1.0 3.0 36 106
+ 0.208667 2 3 cbr 1000 ------- 2 1.0 3.0 36 106
r 0.208667 0 2 cbr 1000 ------- 3 0.0 3.0 36 111
+ 0.208667 2 3 cbr 1000 ------- 3 0.0 3.0 36 111
r 0.208667 4 2 cbr 1000 ------- 0 4.0 3.0 36 116
+ 0.208667 2 3 cbr 1000 ------- 0 4.0 3.0 36 116
- 0.209333 1 2 cbr 1000 ------- 2 1.0 3.0 41 121
- 0.209333 0 2 cbr 1000 ------- 3 0.0 3.0 41 126
- 0.209333 4 2 cbr 1000 ------- 0 4.0 3.0 41 131
r 0.211333 1 2 cbr 1000 ------- 2 1.0 3.0 37 107
+ 0.211333 2 3 cbr 1000 ------- 2 1.0 3.0 37 107
r 0.211333 0 2 cbr 1000 ------- 3 0.0 3.0 37 112
+ 0.211333 2 3 cbr 1000 ------- 3 0.0 3.0 37 112
r 0.211333 4 2 cbr 1000 ------- 0 4.0 3.0 37 117
+ 0.211333 2 3 cbr 1000 ------- 0 4.0 3.0 37 117
+ 0.212 1 2 cbr 1000 ------- 2 1.0 3.0 70 210
+ 0.212 1 2 cbr 1000 ------- 2 1.0 3.0 71 211
+ 0.212 1 2 cbr 1000 ------- 2 1.0 3.0 72 212
+ 0.212 1 2 cbr 1000 ------- 2 1.0 3.0 73 213
+ 0.212 1 2 cbr 1000 ------- 2 1.0 3.0 74 214
+ 0.212 0 2 cbr 1000 ------- 3 0.0 3.0 70 215
+ 0.212 0 2 cbr 1000 ------- 3 0.0 3.0 71 216
+ 0.212 0 2 cbr 1000 ------- 3 0.0 3.0 72 217
+ 0.212 0 2 cbr 1000 ------- 3 0.0 3.0 73 218
+ 0.212 0 2 cbr 1000 ------- 3 0.0 3.0 74 219
+ 0.212 4 2 cbr 1000 ------- 0 4.0 3.0 70 220
+ 0.212 4 2 cbr 1000 ------- 0 4.0 3.0 71 221
+ 0.212 4 2 cbr 1000 ------- 0 4.0 3.0 72 222
+ 0.212 4 2 cbr 1000 ------- 0 4.0 3.0 73 223
+ 0.212 4 2 cbr 1000 ------- 0 4.0 3.0 74 224
- 0.212 1 2 cbr 1000 ------- 2 1.0 3.0 42 122
- 0.212 0 2 cbr 1000 ------- 3 0.0 3.0 42 127
- 0.212 4 2 cbr 1000 ------- 0 4.0 3.0 42 132
r 0.212667 2 3 cbr 1000 ------- 2 1.0 3.0 3 3
r 0.214 1 2 cbr 1000 ------- 2 1.0 3.0 38 108
+ 0.214 2 3 cbr 1000 ------- 2 1.0 3.0 38 108
r 0.214 0 2 cbr 1000 ------- 3 0.0 3.0 38 113
+ 0.214 2 3 cbr 1000 ------- 3 0.0 3.0 38 113
r 0.214 4 2 cbr 1000 ------- 0 4.0 3.0 38 118
+ 0.214 2 3 cbr 1000 ------- 0 4.0 3.0 38 118
- 0.214667 1 2 cbr 1000 ------- 2 1.0 3.0 43 123
- 0.214667 0 2 cbr 1000 ------- 3 0.0 3.0 43 128
- 0.214667 4 2 cbr 1000 ------- 0 4.0 3.0 43 133
- 0.216667 2 3 cbr 1000 ------- 3 0.0 3.0 4 9
r 0.216667 1 2 cbr 1000 ------- 2 1.0 3.0 39 109
+ 0.216667 2 3 cbr 1000 ------- 2 1.0 3.0 39 109
r 0.216667 0 2 cbr 1000 ------- 3 0.0 3.0 39 114
+ 0.216667 2 3 cbr 1000 ------- 3 0.0 3.0 39 114
r 0.216667 4 2 cbr 1000 ------- 0 4.0 3.0 39 119
+ 0.216667 2 3 cbr 1000 ------- 0 4.0 3.0 39 119
- 0.217333 1 2 cbr 1000 ------- 2 1.0 3.0 44 124
- 0.217333 0 2 cbr 1000 ------- 3 0.0 3.0 44 129
- 0.217333 4 2 cbr 1000 ------- 0 4.0 3.0 44 134
r 0.219333 1 2 cbr 1000 ------- 2 1.0 3.0 40 120
+ 0.219333 2 3 cbr 1000 ------- 2 1.0 3.0 40 120
r 0.219333 0 2 cbr 1000 ------- 3 0.0 3.0 40 125
+ 0.219333 2 3 cbr 1000 ------- 3 0.0 3.0 40 125
r 0.219333 4 2 cbr 1000 ------- 0 4.0 3.0 40 130
+ 0.219333 2 3 cbr 1000 ------- 0 4.0 3.0 40 130
+ 0.22 1 2 cbr 1000 ------- 2 1.0 3.0 75 225
+ 0.22 1 2 cbr 1000 ------- 2 1.0 3.0 76 226
+ 0.22 1 2 cbr 1000 ------- 2 1.0 3.0 77 227
+ 0.22 1 2 cbr 1000 ------- 2 1.0 3.0 78 228
+ 0.22 1 2 cbr 1000 ------- 2 1.0 3.0 79 229
+ 0.22 0 2 cbr 1000 ------- 3 0.0 3.0 75 230
+ 0.22 0 2 cbr 1000 ------- 3 0.0 3.0 76 231
+ 0.22 0 2 cbr 1000 ------- 3 0.0 3.0 77 232
+ 0.22 0 2 cbr 1000 ------- 3 0.0 3.0 78 233
+ 0.22 0 2 cbr 1000 ------- 3 0.0 3.0 79 234
+ 0.22 4 2 cbr 1000 ------- 0 4.0 3.0 75 235
+ 0.22 4 2 cbr 1000 ------- 0 4.0 3.0 76 236
+ 0.22 4 2 cbr 1000 ------- 0 4.0 3.0 77 237
+ 0.22 4 2 cbr 1000 ------- 0 4.0 3.0 78 238
+ 0.22 4 2 cbr 1000 ------- 0 4.0 3.0 79 239
- 0.22 1 2 cbr 1000 ------- 2 1.0 3.0 45 135
- 0.22 0 2 cbr 1000 ------- 3 0.0 3.0 45 140
- 0.22 4 2 cbr 1000 ------- 0 4.0 3.0 45 145
r 0.220667 2 3 cbr 1000 ------- 3 0.0 3.0 3 8