n -t * -s 0  -x 298 -y 604 -Z 0 -z 15  -v circle -c black
n -t * -s 1  -x 798 -y 599 -Z 0 -z 15  -v circle -c black
n -t * -s 2  -x 798 -y 900 -Z 0 -z 15  -v circle -c black
n -t * -s 3  -x 1097 -y 899 -Z 0 -z 15  -v circle -c black
n -t * -s 4  -x 1097 -y 602 -Z 0 -z 15  -v circle -c black
n -t * -s 5  -x 1598 -y 600 -Z 0 -z 15  -v circle -c black
n -t * -s 6  -x 1098 -y 299 -Z 0 -z 15  -v circle -c black
n -t * -s 7  -x 795 -y 299 -Z 0 -z 15  -v circle -c black
n -t * -s 8  -x 297 -y 302 -Z 0 -z 15  -v circle -c black
n -t * -s 9  -x 1597 -y 299 -Z 0 -z 15  -v circle -c black
n -t * -s 10  -x 801 -y 0 -Z 0 -z 15  -v circle -c black
n -t * -s 11  -x 1099 -y 2 -Z 0 -z 15  -v circle -c black
n -t * -s 12  -x 868.83500000000004 -y 860.15800000000002 -Z 0 -z 40  -v circle -c black
n -t * -s 13  -x 868.50300000000004 -y 622.34400000000005 -Z 0 -z 40  -v circle -c black
n -t * -s 14  -x 482.33300000000003 -y 362.83800000000002 -Z 0 -z 40  -v circle -c black
n -t * -s 15  -x 350.666 -y 359.00400000000002 -Z 0 -z 40  -v circle -c black
n -t * -s 16  -x 612.25599999999997 -y 362.21300000000002 -Z 0 -z 40  -v circle -c black
n -t * -s 17  -x 733.69799999999998 -y 444.18299999999999 -Z 0 -z 40  -v circle -c black
n -t * -s 18  -x 947 -y 462 -Z 0 -z 40  -v circle -c black
n -t * -s 19  -x 1048.3199999999999 -y 91.1798 -Z 0 -z 40  -v circle -c black
n -t * -s 20  -x 1258.02 -y 547.29100000000005 -Z 0 -z 40  -v circle -c black
n -t * -s 21  -x 1405.3299999999999 -y 539.85000000000002 -Z 0 -z 40  -v circle -c black
n -t * -s 22  -x 1541.9000000000001 -y 539.524 -Z 0 -z 40  -v circle -c black
n -t * -s 23  -x 1201.3299999999999 -y 714.46600000000001 -Z 0 -z 40  -v circle -c black
n -t * -s 24  -x 1481.8199999999999 -y 718.30100000000004 -Z 0 -z 75  -v circle -c black
n -t * -s 25  -x 748.02099999999996 -y 181.66800000000001 -Z 0 -z 40  -v circle -c black
n -t * -s 26  -x 1047.45 -y 197.339 -Z 0 -z 40  -v circle -c black
n -t * -s 27  -x 1048.3199999999999 -y 21.1798 -Z 0 -z 40  -v circle -c black
V -t * -v 1.0a5 -a 0
W -t * -x 1551 -y 1000
A -t * -n 1 -p 0 -o 0x7fffffff -c 30 -a 1
A -t * -h 1 -m 1073741823 -s 0
l -t * -s 0 -d 1 -S UP -r 100000000 -D 0.01 -c yellow
l -t * -s 1 -d 2 -S UP -r 100000000 -D 0.01 -c yellow
l -t * -s 3 -d 4 -S UP -r 100000000 -D 0.01 -c yellow
l -t * -s 4 -d 5 -S UP -r 100000000 -D 0.01 -c yellow
l -t * -s 7 -d 8 -S UP -r 100000000 -D 0.01 -c yellow
l -t * -s 7 -d 10 -S UP -r 100000000 -D 0.01 -c yellow
l -t * -s 6 -d 11 -S UP -r 100000000 -D 0.01 -c yellow
l -t * -s 6 -d 9 -S UP -r 100000000 -D 0.01 -c yellow
+ -t 0.030580916 -s 1 -d -1 -p message -e 32 -c 2 -a 0 -i 0 -k RTR 
- -t 0.030580916 -s 1 -d -1 -p message -e 32 -c 2 -a 0 -i 0 -k RTR
h -t 0.030580916 -s 1 -d -1 -p message -e 32 -c 2 -a 0 -i 0 -k RTR
+ -t 0.030695916 -s 1 -d -1 -p message -e 90 -c 2 -a 0 -i 0 -k MAC 
- -t 0.030695916 -s 1 -d -1 -p message -e 90 -c 2 -a 0 -i 0 -k MAC
h -t 0.030695916 -s 1 -d -1 -p message -e 90 -c 2 -a 0 -i 0 -k MAC
r -t 0.031416163 -s 13 -d -1 -p message -e 32 -c 2 -a 0 -i 0 -k MAC
r -t 0.031416475 -s 17 -d -1 -p message -e 32 -c 2 -a 0 -i 0 -k MAC
r -t 0.031416591 -s 18 -d -1 -p message -e 32 -c 2 -a 0 -i 0 -k MAC
r -t 0.031441163 -s 13 -d -1 -p message -e 32 -c 2 -a 0 -i 0 -k RTR
r -t 0.031441475 -s 17 -d -1 -p message -e 32 -c 2 -a 0 -i 0 -k RTR
r -t 0.031441591 -s 18 -d -1 -p message -e 32 -c 2 -a 0 -i 0 -k RTR
n -t 0.070000000000000007 -s 13 -S DLABEL -l "CAR10" -L ""
n -t 0.070000000000000007 -s 14 -S DLABEL -l "CAR5" -L ""
n -t 0.070000000000000007 -s 16 -S DLABEL -l "CAR6" -L ""
n -t 0.070000000000000007 -s 17 -S DLABEL -l "IDS" -L ""
n -t 0.070000000000000007 -s 18 -S DLABEL -l "RSU" -L ""
n -t 0.070000000000000007 -s 20 -S DLABEL -l "CAR8" -L ""
n -t 0.070000000000000007 -s 22 -S DLABEL -l "CAR9" -L ""
n -t 0.070000000000000007 -s 23 -S DLABEL -l "RSU" -L ""
n -t 0.070000000000000007 -s 24 -S DLABEL -l "RSU(TA)" -L ""
n -t 0.070000000000000007 -s 25 -S DLABEL -l "RSU" -L ""
n -t 0.070000000000000007 -s 26 -S DLABEL -l "CAR7" -L ""
n -t 0.070000000000000007 -s 15 -S DLABEL -l "CAR1" -L ""
n -t 0.070000000000000007 -s 12 -S DLABEL -l "CAR2" -L ""
n -t 0.070000000000000007 -s 19 -S DLABEL -l "CAR3" -L ""
n -t 0.070000000000000007 -s 21 -S DLABEL -l "CAR4" -L ""
n -t 0.070000000000000007 -s 27 -S DLABEL -l "CAR11" -L ""
+ -t 0.093211434 -s 12 -d -1 -p message -e 32 -c 2 -a 0 -i 1 -k RTR 
- -t 0.093211434 -s 12 -d -1 -p message -e 32 -c 2 -a 0 -i 1 -k RTR
h -t 0.093211434 -s 12 -d -1 -p message -e 32 -c 2 -a 0 -i 1 -k RTR
+ -t 0.093366434 -s 12 -d -1 -p message -e 90 -c 2 -a 0 -i 1 -k MAC 
- -t 0.093366434 -s 12 -d -1 -p message -e 90 -c 2 -a 0 -i 1 -k MAC
h -t 0.093366434 -s 12 -d -1 -p message -e 90 -c 2 -a 0 -i 1 -k MAC
r -t 0.094086705 -s 2 -d -1 -p message -e 32 -c 2 -a 0 -i 1 -k MAC
r -t 0.094087206 -s 3 -d -1 -p message -e 32 -c 2 -a 0 -i 1 -k MAC
r -t 0.094087227 -s 13 -d -1 -p message -e 32 -c 2 -a 0 -i 1 -k MAC
r -t 0.094111705 -s 2 -d -1 -p message -e 32 -c 2 -a 0 -i 1 -k RTR
r -t 0.094112206 -s 3 -d -1 -p message -e 32 -c 2 -a 0 -i 1 -k RTR
r -t 0.094112227 -s 13 -d -1 -p message -e 32 -c 2 -a 0 -i 1 -k RTR
+ -t 0.180287418 -s 2 -d -1 -p message -e 32 -c 2 -a 0 -i 2 -k RTR 
- -t 0.180287418 -s 2 -d -1 -p message -e 32 -c 2 -a 0 -i 2 -k RTR
h -t 0.180287418 -s 2 -d -1 -p message -e 32 -c 2 -a 0 -i 2 -k RTR
+ -t 0.180882418 -s 2 -d -1 -p message -e 90 -c 2 -a 0 -i 2 -k MAC 
- -t 0.180882418 -s 2 -d -1 -p message -e 90 -c 2 -a 0 -i 2 -k MAC
h -t 0.180882418 -s 2 -d -1 -p message -e 90 -c 2 -a 0 -i 2 -k MAC
r -t 0.181602689 -s 12 -d -1 -p message -e 32 -c 2 -a 0 -i 2 -k MAC
r -t 0.181627689 -s 12 -d -1 -p message -e 32 -c 2 -a 0 -i 2 -k RTR
+ -t 0.197191187 -s 18 -d -1 -p message -e 32 -c 2 -a 0 -i 3 -k RTR 
- -t 0.197191187 -s 18 -d -1 -p message -e 32 -c 2 -a 0 -i 3 -k RTR
h -t 0.197191187 -s 18 -d -1 -p message -e 32 -c 2 -a 0 -i 3 -k RTR
+ -t 0.197326187 -s 18 -d -1 -p message -e 90 -c 2 -a 0 -i 3 -k MAC 
- -t 0.197326187 -s 18 -d -1 -p message -e 90 -c 2 -a 0 -i 3 -k MAC
h -t 0.197326187 -s 18 -d -1 -p message -e 90 -c 2 -a 0 -i 3 -k MAC
r -t 0.198046782 -s 13 -d -1 -p message -e 32 -c 2 -a 0 -i 3 -k MAC
r -t 0.198046862 -s 1 -d -1 -p message -e 32 -c 2 -a 0 -i 3 -k MAC
r -t 0.198046871 -s 4 -d -1 -p message -e 32 -c 2 -a 0 -i 3 -k MAC
r -t 0.198046901 -s 17 -d -1 -p message -e 32 -c 2 -a 0 -i 3 -k MAC
r -t 0.198046928 -s 6 -d -1 -p message -e 32 -c 2 -a 0 -i 3 -k MAC
r -t 0.198046930 -s 7 -d -1 -p message -e 32 -c 2 -a 0 -i 3 -k MAC
r -t 0.198071782 -s 13 -d -1 -p message -e 32 -c 2 -a 0 -i 3 -k RTR
r -t 0.198071862 -s 1 -d -1 -p message -e 32 -c 2 -a 0 -i 3 -k RTR
r -t 0.198071871 -s 4 -d -1 -p message -e 32 -c 2 -a 0 -i 3 -k RTR
r -t 0.198071901 -s 17 -d -1 -p message -e 32 -c 2 -a 0 -i 3 -k RTR
r -t 0.198071928 -s 6 -d -1 -p message -e 32 -c 2 -a 0 -i 3 -k RTR
r -t 0.198071930 -s 7 -d -1 -p message -e 32 -c 2 -a 0 -i 3 -k RTR
+ -t 0.233566771 -s 14 -d -1 -p message -e 32 -c 2 -a 0 -i 4 -k RTR 
- -t 0.233566771 -s 14 -d -1 -p message -e 32 -c 2 -a 0 -i 4 -k RTR
h -t 0.233566771 -s 14 -d -1 -p message -e 32 -c 2 -a 0 -i 4 -k RTR
+ -t 0.233921771 -s 14 -d -1 -p message -e 90 -c 2 -a 0 -i 4 -k MAC 
- -t 0.233921771 -s 14 -d -1 -p message -e 90 -c 2 -a 0 -i 4 -k MAC
h -t 0.233921771 -s 14 -d -1 -p message -e 90 -c 2 -a 0 -i 4 -k MAC
r -t 0.234642204 -s 16 -d -1 -p message -e 32 -c 2 -a 0 -i 4 -k MAC
r -t 0.234642210 -s 15 -d -1 -p message -e 32 -c 2 -a 0 -i 4 -k MAC
r -t 0.234642421 -s 8 -d -1 -p message -e 32 -c 2 -a 0 -i 4 -k MAC
r -t 0.234667204 -s 16 -d -1 -p message -e 32 -c 2 -a 0 -i 4 -k RTR
r -t 0.234667210 -s 15 -d -1 -p message -e 32 -c 2 -a 0 -i 4 -k RTR
r -t 0.234667421 -s 8 -d -1 -p message -e 32 -c 2 -a 0 -i 4 -k RTR
v -t 0.3 -e sim_annotation 0.3 1 CAR-1 send the registeration deatils to TA 
v -t 0.3 -e sim_annotation 0.3 2 CAR-2 send the registeration deatils to TA 
v -t 0.3 -e sim_annotation 0.3 3 CAR-3 send the registeration deatils to TA 
v -t 0.3 -e sim_annotation 0.3 4 CAR-4 send the registeration deatils to TA 
+ -t 0.330860751 -s 11 -d -1 -p message -e 32 -c 2 -a 0 -i 5 -k RTR 
- -t 0.330860751 -s 11 -d -1 -p message -e 32 -c 2 -a 0 -i 5 -k RTR
h -t 0.330860751 -s 11 -d -1 -p message -e 32 -c 2 -a 0 -i 5 -k RTR
+ -t 0.330935751 -s 11 -d -1 -p message -e 90 -c 2 -a 0 -i 5 -k MAC 
- -t 0.330935751 -s 11 -d -1 -p message -e 90 -c 2 -a 0 -i 5 -k MAC
h -t 0.330935751 -s 11 -d -1 -p message -e 90 -c 2 -a 0 -i 5 -k MAC
r -t 0.331655931 -s 27 -d -1 -p message -e 32 -c 2 -a 0 -i 5 -k MAC
r -t 0.331656093 -s 19 -d -1 -p message -e 32 -c 2 -a 0 -i 5 -k MAC
r -t 0.331656424 -s 26 -d -1 -p message -e 32 -c 2 -a 0 -i 5 -k MAC
r -t 0.331680931 -s 27 -d -1 -p message -e 32 -c 2 -a 0 -i 5 -k RTR
r -t 0.331681093 -s 19 -d -1 -p message -e 32 -c 2 -a 0 -i 5 -k RTR
r -t 0.331681424 -s 26 -d -1 -p message -e 32 -c 2 -a 0 -i 5 -k RTR
+ -t 0.352228749 -s 17 -d -1 -p message -e 32 -c 2 -a 0 -i 6 -k RTR 
- -t 0.352228749 -s 17 -d -1 -p message -e 32 -c 2 -a 0 -i 6 -k RTR
h -t 0.352228749 -s 17 -d -1 -p message -e 32 -c 2 -a 0 -i 6 -k RTR
+ -t 0.352523749 -s 17 -d -1 -p message -e 90 -c 2 -a 0 -i 6 -k MAC 
- -t 0.352523749 -s 17 -d -1 -p message -e 90 -c 2 -a 0 -i 6 -k MAC
h -t 0.352523749 -s 17 -d -1 -p message -e 90 -c 2 -a 0 -i 6 -k MAC
r -t 0.353244238 -s 16 -d -1 -p message -e 32 -c 2 -a 0 -i 6 -k MAC
r -t 0.353244274 -s 7 -d -1 -p message -e 32 -c 2 -a 0 -i 6 -k MAC
r -t 0.353244308 -s 1 -d -1 -p message -e 32 -c 2 -a 0 -i 6 -k MAC
r -t 0.353244463 -s 18 -d -1 -p message -e 32 -c 2 -a 0 -i 6 -k MAC
r -t 0.353244494 -s 13 -d -1 -p message -e 32 -c 2 -a 0 -i 6 -k MAC
r -t 0.353269238 -s 16 -d -1 -p message -e 32 -c 2 -a 0 -i 6 -k RTR
r -t 0.353269274 -s 7 -d -1 -p message -e 32 -c 2 -a 0 -i 6 -k RTR
r -t 0.353269308 -s 1 -d -1 -p message -e 32 -c 2 -a 0 -i 6 -k RTR
r -t 0.353269463 -s 18 -d -1 -p message -e 32 -c 2 -a 0 -i 6 -k RTR
r -t 0.353269494 -s 13 -d -1 -p message -e 32 -c 2 -a 0 -i 6 -k RTR
m -t 0.38 -s 12 -n m2 -c brown -h hexagon
m -t 0.38 -s 13 -n m2 -c brown -h hexagon
m -t 0.38 -s 14 -n m2 -c brown -h hexagon
m -t 0.38 -s 15 -n m2 -c brown -h hexagon
m -t 0.38 -s 16 -n m2 -c brown -h hexagon
m -t 0.38 -s 17 -n m2 -c blue -h circle
m -t 0.38 -s 18 -n m2 -c orange -h circle
m -t 0.38 -s 19 -n m2 -c brown -h hexagon
m -t 0.38 -s 20 -n m2 -c brown -h hexagon
m -t 0.38 -s 21 -n m2 -c brown -h hexagon
m -t 0.38 -s 22 -n m2 -c brown -h hexagon
m -t 0.38 -s 27 -n m2 -c brown -h hexagon
m -t 0.38 -s 23 -n m2 -c blue -h circle
m -t 0.38 -s 24 -n m2 -c green -h circle
m -t 0.38 -s 25 -n m2 -c blue -h circle
m -t 0.38 -s 26 -n m2 -c brown -h hexagon
n -t 0.400000 -s 13 -x 868.503000 -y 622.344000 -U 2.085184 -V -199.989130 -T 2.876485
n -t 0.400000 -s 15 -x 350.666000 -y 359.004000 -U 49.981246 -V 1.369336 -T 8.275544
n -t 0.400000 -s 14 -x 482.333000 -y 362.838000 -U 74.973495 -V 1.993762 -T 3.760729
n -t 0.400000 -s 16 -x 612.256000 -y 362.213000 -U 199.715138 -V 10.670688 -T 0.761244
n -t 0.400000 -s 12 -x 868.835000 -y 860.158000 -U 0.000000 -V -200.000000 -T 1.218205
n -t 0.400000 -s 20 -x 1258.020000 -y 547.291000 -U -199.885281 -V -6.773082 -T 0.680340
n -t 0.400000 -s 21 -x 1405.330000 -y 539.850000 -U -74.996250 -V 0.749963 -T 3.777522
n -t 0.400000 -s 22 -x 1541.900000 -y 539.524000 -U -49.998585 -V 0.376177 -T 8.397638
n -t 0.400000 -s 19 -x 1048.320000 -y 91.179800 -U 0.000000 -V 100.000000 -T 1.048112
n -t 0.400000 -s 27 -x 1048.320000 -y 21.179800 -U 0.000000 -V 100.000000 -T 1.028112
n -t 0.400000 -s 26 -x 1047.450000 -y 197.339000 -U 1.231294 -V 99.992419 -T 0.706574
+ -t 0.472476674 -s 7 -d -1 -p message -e 32 -c 2 -a 0 -i 7 -k RTR 
- -t 0.472476674 -s 7 -d -1 -p message -e 32 -c 2 -a 0 -i 7 -k RTR
h -t 0.472476674 -s 7 -d -1 -p message -e 32 -c 2 -a 0 -i 7 -k RTR
+ -t 0.472791674 -s 7 -d -1 -p message -e 90 -c 2 -a 0 -i 7 -k MAC 
- -t 0.472791674 -s 7 -d -1 -p message -e 90 -c 2 -a 0 -i 7 -k MAC
h -t 0.472791674 -s 7 -d -1 -p message -e 90 -c 2 -a 0 -i 7 -k MAC
r -t 0.473512095 -s 25 -d -1 -p message -e 32 -c 2 -a 0 -i 7 -k MAC
r -t 0.473512199 -s 17 -d -1 -p message -e 32 -c 2 -a 0 -i 7 -k MAC
r -t 0.473512274 -s 16 -d -1 -p message -e 32 -c 2 -a 0 -i 7 -k MAC
r -t 0.473512417 -s 18 -d -1 -p message -e 32 -c 2 -a 0 -i 7 -k MAC
r -t 0.473537095 -s 25 -d -1 -p message -e 32 -c 2 -a 0 -i 7 -k RTR
r -t 0.473537199 -s 17 -d -1 -p message -e 32 -c 2 -a 0 -i 7 -k RTR
r -t 0.473537274 -s 16 -d -1 -p message -e 32 -c 2 -a 0 -i 7 -k RTR
r -t 0.473537417 -s 18 -d -1 -p message -e 32 -c 2 -a 0 -i 7 -k RTR
+ -t 0.523902855 -s 21 -d -1 -p message -e 32 -c 2 -a 0 -i 8 -k RTR 
- -t 0.523902855 -s 21 -d -1 -p message -e 32 -c 2 -a 0 -i 8 -k RTR
h -t 0.523902855 -s 21 -d -1 -p message -e 32 -c 2 -a 0 -i 8 -k RTR
+ -t 0.524457855 -s 21 -d -1 -p message -e 90 -c 2 -a 0 -i 8 -k MAC 
- -t 0.524457855 -s 21 -d -1 -p message -e 90 -c 2 -a 0 -i 8 -k MAC
h -t 0.524457855 -s 21 -d -1 -p message -e 90 -c 2 -a 0 -i 8 -k MAC
r -t 0.525178321 -s 22 -d -1 -p message -e 32 -c 2 -a 0 -i 8 -k MAC
r -t 0.525178398 -s 20 -d -1 -p message -e 32 -c 2 -a 0 -i 8 -k MAC
r -t 0.525178515 -s 24 -d -1 -p message -e 32 -c 2 -a 0 -i 8 -k MAC
r -t 0.525178557 -s 5 -d -1 -p message -e 32 -c 2 -a 0 -i 8 -k MAC
r -t 0.525203321 -s 22 -d -1 -p message -e 32 -c 2 -a 0 -i 8 -k RTR
r -t 0.525203398 -s 20 -d -1 -p message -e 32 -c 2 -a 0 -i 8 -k RTR
r -t 0.525203515 -s 24 -d -1 -p message -e 32 -c 2 -a 0 -i 8 -k RTR
r -t 0.525203557 -s 5 -d -1 -p message -e 32 -c 2 -a 0 -i 8 -k RTR
+ -t 0.627918183 -s 9 -d -1 -p message -e 32 -c 2 -a 0 -i 9 -k RTR 
- -t 0.627918183 -s 9 -d -1 -p message -e 32 -c 2 -a 0 -i 9 -k RTR
h -t 0.627918183 -s 9 -d -1 -p message -e 32 -c 2 -a 0 -i 9 -k RTR
+ -t 0.628113183 -s 9 -d -1 -p message -e 90 -c 2 -a 0 -i 9 -k MAC 
- -t 0.628113183 -s 9 -d -1 -p message -e 90 -c 2 -a 0 -i 9 -k MAC
h -t 0.628113183 -s 9 -d -1 -p message -e 90 -c 2 -a 0 -i 9 -k MAC
r -t 0.628834015 -s 22 -d -1 -p message -e 32 -c 2 -a 0 -i 9 -k MAC
r -t 0.628859015 -s 22 -d -1 -p message -e 32 -c 2 -a 0 -i 9 -k RTR
+ -t 0.630840760 -s 5 -d -1 -p message -e 32 -c 2 -a 0 -i 10 -k RTR 
- -t 0.630840760 -s 5 -d -1 -p message -e 32 -c 2 -a 0 -i 10 -k RTR
h -t 0.630840760 -s 5 -d -1 -p message -e 32 -c 2 -a 0 -i 10 -k RTR
+ -t 0.631015760 -s 5 -d -1 -p message -e 90 -c 2 -a 0 -i 10 -k MAC 
- -t 0.631015760 -s 5 -d -1 -p message -e 90 -c 2 -a 0 -i 10 -k MAC
h -t 0.631015760 -s 5 -d -1 -p message -e 90 -c 2 -a 0 -i 10 -k MAC
r -t 0.631736063 -s 22 -d -1 -p message -e 32 -c 2 -a 0 -i 10 -k MAC
r -t 0.631736313 -s 24 -d -1 -p message -e 32 -c 2 -a 0 -i 10 -k MAC
r -t 0.631736488 -s 21 -d -1 -p message -e 32 -c 2 -a 0 -i 10 -k MAC
r -t 0.631761063 -s 22 -d -1 -p message -e 32 -c 2 -a 0 -i 10 -k RTR
r -t 0.631761313 -s 24 -d -1 -p message -e 32 -c 2 -a 0 -i 10 -k RTR
r -t 0.631761488 -s 21 -d -1 -p message -e 32 -c 2 -a 0 -i 10 -k RTR
+ -t 0.698364053 -s 20 -d -1 -p message -e 32 -c 2 -a 0 -i 11 -k RTR 
- -t 0.698364053 -s 20 -d -1 -p message -e 32 -c 2 -a 0 -i 11 -k RTR
h -t 0.698364053 -s 20 -d -1 -p message -e 32 -c 2 -a 0 -i 11 -k RTR
+ -t 0.698499053 -s 20 -d -1 -p message -e 90 -c 2 -a 0 -i 11 -k MAC 
- -t 0.698499053 -s 20 -d -1 -p message -e 90 -c 2 -a 0 -i 11 -k MAC
h -t 0.698499053 -s 20 -d -1 -p message -e 90 -c 2 -a 0 -i 11 -k MAC
r -t 0.699219440 -s 4 -d -1 -p message -e 32 -c 2 -a 0 -i 11 -k MAC
r -t 0.699219617 -s 23 -d -1 -p message -e 32 -c 2 -a 0 -i 11 -k MAC
r -t 0.699219668 -s 21 -d -1 -p message -e 32 -c 2 -a 0 -i 11 -k MAC
r -t 0.699244440 -s 4 -d -1 -p message -e 32 -c 2 -a 0 -i 11 -k RTR
r -t 0.699244617 -s 23 -d -1 -p message -e 32 -c 2 -a 0 -i 11 -k RTR
r -t 0.699244668 -s 21 -d -1 -p message -e 32 -c 2 -a 0 -i 11 -k RTR
+ -t 0.826117815 -s 22 -d -1 -p message -e 32 -c 2 -a 0 -i 12 -k RTR 
- -t 0.826117815 -s 22 -d -1 -p message -e 32 -c 2 -a 0 -i 12 -k RTR
h -t 0.826117815 -s 22 -d -1 -p message -e 32 -c 2 -a 0 -i 12 -k RTR
+ -t 0.826252815 -s 22 -d -1 -p message -e 90 -c 2 -a 0 -i 12 -k MAC 
- -t 0.826252815 -s 22 -d -1 -p message -e 90 -c 2 -a 0 -i 12 -k MAC
h -t 0.826252815 -s 22 -d -1 -p message -e 90 -c 2 -a 0 -i 12 -k MAC
r -t 0.826973142 -s 5 -d -1 -p message -e 32 -c 2 -a 0 -i 12 -k MAC
r -t 0.826973306 -s 21 -d -1 -p message -e 32 -c 2 -a 0 -i 12 -k MAC
r -t 0.826973424 -s 24 -d -1 -p message -e 32 -c 2 -a 0 -i 12 -k MAC
r -t 0.826998142 -s 5 -d -1 -p message -e 32 -c 2 -a 0 -i 12 -k RTR
r -t 0.826998306 -s 21 -d -1 -p message -e 32 -c 2 -a 0 -i 12 -k RTR
r -t 0.826998424 -s 24 -d -1 -p message -e 32 -c 2 -a 0 -i 12 -k RTR
+ -t 0.850874058 -s 16 -d -1 -p message -e 32 -c 2 -a 0 -i 13 -k RTR 
- -t 0.850874058 -s 16 -d -1 -p message -e 32 -c 2 -a 0 -i 13 -k RTR
h -t 0.850874058 -s 16 -d -1 -p message -e 32 -c 2 -a 0 -i 13 -k RTR
+ -t 0.851389058 -s 16 -d -1 -p message -e 90 -c 2 -a 0 -i 13 -k MAC 
- -t 0.851389058 -s 16 -d -1 -p message -e 90 -c 2 -a 0 -i 13 -k MAC
h -t 0.851389058 -s 16 -d -1 -p message -e 90 -c 2 -a 0 -i 13 -k MAC
r -t 0.852109336 -s 17 -d -1 -p message -e 32 -c 2 -a 0 -i 13 -k MAC
r -t 0.852109441 -s 7 -d -1 -p message -e 32 -c 2 -a 0 -i 13 -k MAC
r -t 0.852109679 -s 14 -d -1 -p message -e 32 -c 2 -a 0 -i 13 -k MAC
r -t 0.852109695 -s 25 -d -1 -p message -e 32 -c 2 -a 0 -i 13 -k MAC
r -t 0.852109841 -s 13 -d -1 -p message -e 32 -c 2 -a 0 -i 13 -k MAC
r -t 0.852134336 -s 17 -d -1 -p message -e 32 -c 2 -a 0 -i 13 -k RTR
r -t 0.852134441 -s 7 -d -1 -p message -e 32 -c 2 -a 0 -i 13 -k RTR
r -t 0.852134679 -s 14 -d -1 -p message -e 32 -c 2 -a 0 -i 13 -k RTR
r -t 0.852134695 -s 25 -d -1 -p message -e 32 -c 2 -a 0 -i 13 -k RTR
r -t 0.852134841 -s 13 -d -1 -p message -e 32 -c 2 -a 0 -i 13 -k RTR
+ -t 0.888982023 -s 3 -d -1 -p message -e 32 -c 2 -a 0 -i 14 -k RTR 
- -t 0.888982023 -s 3 -d -1 -p message -e 32 -c 2 -a 0 -i 14 -k RTR
h -t 0.888982023 -s 3 -d -1 -p message -e 32 -c 2 -a 0 -i 14 -k RTR
+ -t 0.889357023 -s 3 -d -1 -p message -e 90 -c 2 -a 0 -i 14 -k MAC 
- -t 0.889357023 -s 3 -d -1 -p message -e 90 -c 2 -a 0 -i 14 -k MAC
h -t 0.889357023 -s 3 -d -1 -p message -e 90 -c 2 -a 0 -i 14 -k MAC
r -t 0.890077730 -s 23 -d -1 -p message -e 32 -c 2 -a 0 -i 14 -k MAC
r -t 0.890102730 -s 23 -d -1 -p message -e 32 -c 2 -a 0 -i 14 -k RTR
+ -t 0.935967911 -s 24 -d -1 -p message -e 32 -c 2 -a 0 -i 15 -k RTR 
- -t 0.935967911 -s 24 -d -1 -p message -e 32 -c 2 -a 0 -i 15 -k RTR
h -t 0.935967911 -s 24 -d -1 -p message -e 32 -c 2 -a 0 -i 15 -k RTR
+ -t 0.936262911 -s 24 -d -1 -p message -e 90 -c 2 -a 0 -i 15 -k MAC 
- -t 0.936262911 -s 24 -d -1 -p message -e 90 -c 2 -a 0 -i 15 -k MAC
h -t 0.936262911 -s 24 -d -1 -p message -e 90 -c 2 -a 0 -i 15 -k MAC
r -t 0.936983464 -s 5 -d -1 -p message -e 32 -c 2 -a 0 -i 15 -k MAC
r -t 0.936983517 -s 22 -d -1 -p message -e 32 -c 2 -a 0 -i 15 -k MAC
r -t 0.936983621 -s 21 -d -1 -p message -e 32 -c 2 -a 0 -i 15 -k MAC
r -t 0.937008464 -s 5 -d -1 -p message -e 32 -c 2 -a 0 -i 15 -k RTR
r -t 0.937008517 -s 22 -d -1 -p message -e 32 -c 2 -a 0 -i 15 -k RTR
r -t 0.937008621 -s 21 -d -1 -p message -e 32 -c 2 -a 0 -i 15 -k RTR
+ -t 1.044254488 -s 23 -d -1 -p message -e 32 -c 2 -a 0 -i 16 -k RTR 
- -t 1.044254488 -s 23 -d -1 -p message -e 32 -c 2 -a 0 -i 16 -k RTR
h -t 1.044254488 -s 23 -d -1 -p message -e 32 -c 2 -a 0 -i 16 -k RTR
+ -t 1.044729488 -s 23 -d -1 -p message -e 90 -c 2 -a 0 -i 16 -k MAC 
- -t 1.044729488 -s 23 -d -1 -p message -e 90 -c 2 -a 0 -i 16 -k MAC
h -t 1.044729488 -s 23 -d -1 -p message -e 90 -c 2 -a 0 -i 16 -k MAC
r -t 1.045449999 -s 4 -d -1 -p message -e 32 -c 2 -a 0 -i 16 -k MAC
r -t 1.045450108 -s 20 -d -1 -p message -e 32 -c 2 -a 0 -i 16 -k MAC
r -t 1.045450194 -s 3 -d -1 -p message -e 32 -c 2 -a 0 -i 16 -k MAC
r -t 1.045450266 -s 21 -d -1 -p message -e 32 -c 2 -a 0 -i 16 -k MAC
r -t 1.045474999 -s 4 -d -1 -p message -e 32 -c 2 -a 0 -i 16 -k RTR
r -t 1.045475108 -s 20 -d -1 -p message -e 32 -c 2 -a 0 -i 16 -k RTR
r -t 1.045475194 -s 3 -d -1 -p message -e 32 -c 2 -a 0 -i 16 -k RTR
r -t 1.045475266 -s 21 -d -1 -p message -e 32 -c 2 -a 0 -i 16 -k RTR
+ -t 1.100000000 -s 24 -d -1 -p cbr -e 1000 -c 2 -a 0 -i 17 -k AGT 
- -t 1.100000000 -s 24 -d -1 -p cbr -e 1000 -c 2 -a 0 -i 17 -k AGT
h -t 1.100000000 -s 24 -d -1 -p cbr -e 1000 -c 2 -a 0 -i 17 -k AGT
+ -t 1.100000000 -s 24 -d 21 -p cbr -e 1020 -c 2 -a 0 -i 17 -k RTR 
- -t 1.100000000 -s 24 -d 21 -p cbr -e 1020 -c 2 -a 0 -i 17 -k RTR
h -t 1.100000000 -s 24 -d 21 -p cbr -e 1020 -c 2 -a 0 -i 17 -k RTR
+ -t 1.100000000 -s 23 -d -1 -p cbr -e 1000 -c 2 -a 0 -i 18 -k AGT 
- -t 1.100000000 -s 23 -d -1 -p cbr -e 1000 -c 2 -a 0 -i 18 -k AGT
h -t 1.100000000 -s 23 -d -1 -p cbr -e 1000 -c 2 -a 0 -i 18 -k AGT
+ -t 1.100215000 -s 24 -d -1 -p ARP -e 86 -c 2 -a 0 -i 0 -k MAC 
- -t 1.100215000 -s 24 -d -1 -p ARP -e 86 -c 2 -a 0 -i 0 -k MAC
h -t 1.100215000 -s 24 -d -1 -p ARP -e 86 -c 2 -a 0 -i 0 -k MAC
r -t 1.100903553 -s 5 -d -1 -p ARP -e 28 -c 2 -a 0 -i 0 -k MAC
r -t 1.100903601 -s 22 -d -1 -p ARP -e 28 -c 2 -a 0 -i 0 -k MAC
r -t 1.100903733 -s 21 -d -1 -p ARP -e 28 -c 2 -a 0 -i 0 -k MAC
+ -t 1.100958733 -s 21 -d -1 -p RTS -e 44 -c 2 -a 0 -i 0 -k MAC 
- -t 1.100958733 -s 21 -d -1 -p RTS -e 44 -c 2 -a 0 -i 0 -k MAC
h -t 1.100958733 -s 21 -d -1 -p RTS -e 44 -c 2 -a 0 -i 0 -k MAC
r -t 1.101311465 -s 24 -d -1 -p RTS -e 44 -c 2 -a 0 -i 0 -k MAC
+ -t 1.101321465 -s 24 -d -1 -p CTS -e 38 -c 2 -a 0 -i 0 -k MAC 
- -t 1.101321465 -s 24 -d -1 -p CTS -e 38 -c 2 -a 0 -i 0 -k MAC
h -t 1.101321465 -s 24 -d -1 -p CTS -e 38 -c 2 -a 0 -i 0 -k MAC
r -t 1.101626198 -s 21 -d -1 -p CTS -e 38 -c 2 -a 0 -i 0 -k MAC
+ -t 1.101636198 -s 21 -d -1 -p ARP -e 86 -c 2 -a 0 -i 0 -k MAC 
- -t 1.101636198 -s 21 -d -1 -p ARP -e 86 -c 2 -a 0 -i 0 -k MAC
h -t 1.101636198 -s 21 -d -1 -p ARP -e 86 -c 2 -a 0 -i 0 -k MAC
r -t 1.102324931 -s 24 -d -1 -p ARP -e 28 -c 2 -a 0 -i 0 -k MAC
+ -t 1.102334931 -s 24 -d -1 -p ACK -e 38 -c 2 -a 0 -i 0 -k MAC 
- -t 1.102334931 -s 24 -d -1 -p ACK -e 38 -c 2 -a 0 -i 0 -k MAC
h -t 1.102334931 -s 24 -d -1 -p ACK -e 38 -c 2 -a 0 -i 0 -k MAC
r -t 1.102639664 -s 21 -d -1 -p ACK -e 38 -c 2 -a 0 -i 0 -k MAC
+ -t 1.102908931 -s 24 -d -1 -p RTS -e 44 -c 2 -a 0 -i 0 -k MAC 
- -t 1.102908931 -s 24 -d -1 -p RTS -e 44 -c 2 -a 0 -i 0 -k MAC
h -t 1.102908931 -s 24 -d -1 -p RTS -e 44 -c 2 -a 0 -i 0 -k MAC
r -t 1.103261664 -s 21 -d -1 -p RTS -e 44 -c 2 -a 0 -i 0 -k MAC
+ -t 1.103271664 -s 21 -d -1 -p CTS -e 38 -c 2 -a 0 -i 0 -k MAC 
- -t 1.103271664 -s 21 -d -1 -p CTS -e 38 -c 2 -a 0 -i 0 -k MAC
h -t 1.103271664 -s 21 -d -1 -p CTS -e 38 -c 2 -a 0 -i 0 -k MAC
r -t 1.103576397 -s 24 -d -1 -p CTS -e 38 -c 2 -a 0 -i 0 -k MAC
+ -t 1.103586397 -s 24 -d 21 -p cbr -e 1078 -c 2 -a 0 -i 17 -k MAC 
- -t 1.103586397 -s 24 -d 21 -p cbr -e 1078 -c 2 -a 0 -i 17 -k MAC
h -t 1.103586397 -s 24 -d 21 -p cbr -e 1078 -c 2 -a 0 -i 17 -k MAC
+ -t 1.108000000 -s 24 -d -1 -p cbr -e 1000 -c 2 -a 0 -i 19 -k AGT 
- -t 1.108000000 -s 24 -d -1 -p cbr -e 1000 -c 2 -a 0 -i 19 -k AGT
h -t 1.108000000 -s 24 -d -1 -p cbr -e 1000 -c 2 -a 0 -i 19 -k AGT
+ -t 1.108000000 -s 24 -d 21 -p cbr -e 1020 -c 2 -a 0 -i 19 -k RTR 
- -t 1.108000000 -s 24 -d 21 -p cbr -e 1020 -c 2 -a 0 -i 19 -k RTR
h -t 1.108000000 -s 24 -d 21 -p cbr -e 1020 -c 2 -a 0 -i 19 -k RTR
+ -t 1.108000000 -s 23 -d -1 -p cbr -e 1000 -c 2 -a 0 -i 20 -k AGT 
- -t 1.108000000 -s 23 -d -1 -p cbr -e 1000 -c 2 -a 0 -i 20 -k AGT
h -t 1.108000000 -s 23 -d -1 -p cbr -e 1000 -c 2 -a 0 -i 20 -k AGT
r -t 1.112211130 -s 21 -d 21 -p cbr -e 1020 -c 2 -a 0 -i 17 -k MAC
+ -t 1.112221130 -s 21 -d -1 -p ACK -e 38 -c 2 -a 0 -i 0 -k MAC 
- -t 1.112221130 -s 21 -d -1 -p ACK -e 38 -c 2 -a 0 -i 0 -k MAC
h -t 1.112221130 -s 21 -d -1 -p ACK -e 38 -c 2 -a 0 -i 0 -k MAC
r -t 1.112236130 -s 21 -d 21 -p cbr -e 1020 -c 2 -a 0 -i 17 -k AGT
r -t 1.112525864 -s 24 -d -1 -p ACK -e 38 -c 2 -a 0 -i 0 -k MAC
+ -t 1.112995864 -s 24 -d -1 -p RTS -e 44 -c 2 -a 0 -i 0 -k MAC 
- -t 1.112995864 -s 24 -d -1 -p RTS -e 44 -c 2 -a 0 -i 0 -k MAC
h -t 1.112995864 -s 24 -d -1 -p RTS -e 44 -c 2 -a 0 -i 0 -k MAC
r -t 1.113348599 -s 21 -d -1 -p RTS -e 44 -c 2 -a 0 -i 0 -k MAC
+ -t 1.113358599 -s 21 -d -1 -p CTS -e 38 -c 2 -a 0 -i 0 -k MAC 
- -t 1.113358599 -s 21 -d -1 -p CTS -e 38 -c 2 -a 0 -i 0 -k MAC
h -t 1.113358599 -s 21 -d -1 -p CTS -e 38 -c 2 -a 0 -i 0 -k MAC
r -t 1.113663333 -s 24 -d -1 -p CTS -e 38 -c 2 -a 0 -i 0 -k MAC
+ -t 1.113673333 -s 24 -d 21 -p cbr -e 1078 -c 2 -a 0 -i 19 -k MAC 
- -t 1.113673333 -s 24 -d 21 -p cbr -e 1078 -c 2 -a 0 -i 19 -k MAC
h -t 1.113673333 -s 24 -d 21 -p cbr -e 1078 -c 2 -a 0 -i 19 -k MAC
+ -t 1.116000000 -s 24 -d -1 -p cbr -e 1000 -c 2 -a 0 -i 22 -k AGT 
- -t 1.116000000 -s 24 -d -1 -p cbr -e 1000 -c 2 -a 0 -i 22 -k AGT
h -t 1.116000000 -s 24 -d -1 -p cbr -e 1000 -c 2 -a 0 -i 22 -k AGT
+ -t 1.116000000 -s 24 -d 21 -p cbr -e 1020 -c 2 -a 0 -i 22 -k RTR 
- -t 1.116000000 -s 24 -d 21 -p cbr -e 1020 -c 2 -a 0 -i 22 -k RTR
h -t 1.116000000 -s 24 -d 21 -p cbr -e 1020 -c 2 -a 0 -i 22 -k RTR
+ -t 1.116000000 -s 23 -d -1 -p cbr -e 1000 -c 2 -a 0 -i 23 -k AGT 
- -t 1.116000000 -s 23 -d -1 -p cbr -e 1000 -c 2 -a 0 -i 23 -k AGT
h -t 1.116000000 -s 23 -d -1 -p cbr -e 1000 -c 2 -a 0 -i 23 -k AGT
+ -t 1.120561388 -s 0 -d -1 -p message -e 32 -c 2 -a 0 -i 21 -k RTR 
- -t 1.120561388 -s 0 -d -1 -p message -e 32 -c 2 -a 0 -i 21 -k RTR
h -t 1.120561388 -s 0 -d -1 -p message -e 32 -c 2 -a 0 -i 21 -k RTR
+ -t 1.121136388 -s 0 -d -1 -p message -e 90 -c 2 -a 0 -i 21 -k MAC 
- -t 1.121136388 -s 0 -d -1 -p message -e 90 -c 2 -a 0 -i 21 -k MAC
h -t 1.121136388 -s 0 -d -1 -p message -e 90 -c 2 -a 0 -i 21 -k MAC
r -t 1.122298068 -s 21 -d 21 -p cbr -e 1020 -c 2 -a 0 -i 19 -k MAC
+ -t 1.122308068 -s 21 -d -1 -p ACK -e 38 -c 2 -a 0 -i 0 -k MAC 
- -t 1.122308068 -s 21 -d -1 -p ACK -e 38 -c 2 -a 0 -i 0 -k MAC
h -t 1.122308068 -s 21 -d -1 -p ACK -e 38 -c 2 -a 0 -i 0 -k MAC
r -t 1.122323068 -s 21 -d 21 -p cbr -e 1020 -c 2 -a 0 -i 19 -k AGT
r -t 1.122612803 -s 24 -d -1 -p ACK -e 38 -c 2 -a 0 -i 0 -k MAC
+ -t 1.122822803 -s 24 -d -1 -p RTS -e 44 -c 2 -a 0 -i 0 -k MAC 
- -t 1.122822803 -s 24 -d -1 -p RTS -e 44 -c 2 -a 0 -i 0 -k MAC
h -t 1.122822803 -s 24 -d -1 -p RTS -e 44 -c 2 -a 0 -i 0 -k MAC
r -t 1.123175539 -s 21 -d -1 -p RTS -e 44 -c 2 -a 0 -i 0 -k MAC
+ -t 1.123185539 -s 21 -d -1 -p CTS -e 38 -c 2 -a 0 -i 0 -k MAC 
- -t 1.123185539 -s 21 -d -1 -p CTS -e 38 -c 2 -a 0 -i 0 -k MAC
h -t 1.123185539 -s 21 -d -1 -p CTS -e 38 -c 2 -a 0 -i 0 -k MAC
r -t 1.123490275 -s 24 -d -1 -p CTS -e 38 -c 2 -a 0 -i 0 -k MAC
+ -t 1.123500275 -s 24 -d 21 -p cbr -e 1078 -c 2 -a 0 -i 22 -k MAC 
- -t 1.123500275 -s 24 -d 21 -p cbr -e 1078 -c 2 -a 0 -i 22 -k MAC
h -t 1.123500275 -s 24 -d 21 -p cbr -e 1078 -c 2 -a 0 -i 22 -k MAC
+ -t 1.124000000 -s 24 -d -1 -p cbr -e 1000 -c 2 -a 0 -i 24 -k AGT 
- -t 1.124000000 -s 24 -d -1 -p cbr -e 1000 -c 2 -a 0 -i 24 -k AGT
h -t 1.124000000 -s 24 -d -1 -p cbr -e 1000 -c 2 -a 0 -i 24 -k AGT
+ -t 1.124000000 -s 24 -d 21 -p cbr -e 1020 -c 2 -a 0 -i 24 -k RTR 
- -t 1.124000000 -s 24 -d 21 -p cbr -e 1020 -c 2 -a 0 -i 24 -k RTR
h -t 1.124000000 -s 24 -d 21 -p cbr -e 1020 -c 2 -a 0 -i 24 -k RTR
+ -t 1.124000000 -s 23 -d -1 -p cbr -e 1000 -c 2 -a 0 -i 25 -k AGT 
- -t 1.124000000 -s 23 -d -1 -p cbr -e 1000 -c 2 -a 0 -i 25 -k AGT
h -t 1.124000000 -s 23 -d -1 -p cbr -e 1000 -c 2 -a 0 -i 25 -k AGT
+ -t 1.132000000 -s 24 -d -1 -p cbr -e 1000 -c 2 -a 0 -i 26 -k AGT 
- -t 1.132000000 -s 24 -d -1 -p cbr -e 1000 -c 2 -a 0 -i 26 -k AGT
h -t 1.132000000 -s 24 -d -1 -p cbr -e 1000 -c 2 -a 0 -i 26 -k AGT
+ -t 1.132000000 -s 24 -d 21 -p cbr -e 1020 -c 2 -a 0 -i 26 -k RTR 
- -t 1.132000000 -s 24 -d 21 -p cbr -e 1020 -c 2 -a 0 -i 26 -k RTR
h -t 1.132000000 -s 24 -d 21 -p cbr -e 1020 -c 2 -a 0 -i 26 -k RTR
+ -t 1.132000000 -s 23 -d -1 -p cbr -e 1000 -c 2 -a 0 -i 27 -k AGT 
- -t 1.132000000 -s 23 -d -1 -p cbr -e 1000 -c 2 -a 0 -i 27 -k AGT
h -t 1.132000000 -s 23 -d -1 -p cbr -e 1000 -c 2 -a 0 -i 27 -k AGT
r -t 1.132125011 -s 21 -d 21 -p cbr -e 1020 -c 2 -a 0 -i 22 -k MAC
+ -t 1.132135011 -s 21 -d -1 -p ACK -e 38 -c 2 -a 0 -i 0 -k MAC 
- -t 1.132135011 -s 21 -d -1 -p ACK -e 38 -c 2 -a 0 -i 0 -k MAC
h -t 1.132135011 -s 21 -d -1 -p ACK -e 38 -c 2 -a 0 -i 0 -k MAC
r -t 1.132150011 -s 21 -d 21 -p cbr -e 1020 -c 2 -a 0 -i 22 -k AGT
r -t 1.132439748 -s 24 -d -1 -p ACK -e 38 -c 2 -a 0 -i 0 -k MAC
+ -t 1.132509748 -s 24 -d -1 -p RTS -e 44 -c 2 -a 0 -i 0 -k MAC 
- -t 1.132509748 -s 24 -d -1 -p RTS -e 44 -c 2 -a 0 -i 0 -k MAC
h -t 1.132509748 -s 24 -d -1 -p RTS -e 44 -c 2 -a 0 -i 0 -k MAC
r -t 1.132862486 -s 21 -d -1 -p RTS -e 44 -c 2 -a 0 -i 0 -k MAC
+ -t 1.132872486 -s 21 -d -1 -p CTS -e 38 -c 2 -a 0 -i 0 -k MAC 
- -t 1.132872486 -s 21 -d -1 -p CTS -e 38 -c 2 -a 0 -i 0 -k MAC
h -t 1.132872486 -s 21 -d -1 -p CTS -e 38 -c 2 -a 0 -i 0 -k MAC
r -t 1.133177223 -s 24 -d -1 -p CTS -e 38 -c 2 -a 0 -i 0 -k MAC
+ -t 1.133187223 -s 24 -d 21 -p cbr -e 1078 -c 2 -a 0 -i 24 -k MAC 
- -t 1.133187223 -s 24 -d 21 -p cbr -e 1078 -c 2 -a 0 -i 24 -k MAC
h -t 1.133187223 -s 24 -d 21 -p cbr -e 1078 -c 2 -a 0 -i 24 -k MAC
+ -t 1.140000000 -s 24 -d -1 -p cbr -e 1000 -c 2 -a 0 -i 28 -k AGT 
- -t 1.140000000 -s 24 -d -1 -p cbr -e 1000 -c 2 -a 0 -i 28 -k AGT
h -t 1.140000000 -s 24 -d -1 -p cbr -e 1000 -c 2 -a 0 -i 28 -k AGT
+ -t 1.140000000 -s 24 -d 21 -p cbr -e 1020 -c 2 -a 0 -i 28 -k RTR 
- -t 1.140000000 -s 24 -d 21 -p cbr -e 1020 -c 2 -a 0 -i 28 -k RTR
h -t 1.140000000 -s 24 -d 21 -p cbr -e 1020 -c 2 -a 0 -i 28 -k RTR
+ -t 1.140000000 -s 23 -d -1 -p cbr -e 1000 -c 2 -a 0 -i 29 -k AGT 
- -t 1.140000000 -s 23 -d -1 -p cbr -e 1000 -c 2 -a 0 -i 29 -k AGT
h -t 1.140000000 -s 23 -d -1 -p cbr -e 1000 -c 2 -a 0 -i 29 -k AGT
d -t 1.140000000 -s 23 -d -1 -p cbr -e 1020 -c 2 -a 0 -i 18 -k RTR
r -t 1.141811960 -s 21 -d 21 -p cbr -e 1020 -c 2 -a 0 -i 24 -k MAC
+ -t 1.141821960 -s 21 -d -1 -p ACK -e 38 -c 2 -a 0 -i 0 -k MAC 
- -t 1.141821960 -s 21 -d -1 -p ACK -e 38 -c 2 -a 0 -i 0 -k MAC
h -t 1.141821960 -s 21 -d -1 -p ACK -e 38 -c 2 -a 0 -i 0 -k MAC
r -t 1.141836960 -s 21 -d 21 -p cbr -e 1020 -c 2 -a 0 -i 24 -k AGT
r -t 1.142126699 -s 24 -d -1 -p ACK -e 38 -c 2 -a 0 -i 0 -k MAC
+ -t 1.142436699 -s 24 -d -1 -p RTS -e 44 -c 2 -a 0 -i 0 -k MAC 
- -t 1.142436699 -s 24 -d -1 -p RTS -e 44 -c 2 -a 0 -i 0 -k MAC