s 0.030580916 _1_ RTR  --- 0 message 32 [0 0 0 0] ------- [1:255 -1:255 32 0] 
s 0.030695916 _1_ MAC  --- 0 message 90 [0 ffffffff 1 800] ------- [1:255 -1:255 32 0] 
r 0.031416163 _13_ MAC  --- 0 message 32 [0 ffffffff 1 800] ------- [1:255 -1:255 32 0] 
r 0.031416475 _17_ MAC  --- 0 message 32 [0 ffffffff 1 800] ------- [1:255 -1:255 32 0] 
r 0.031416591 _18_ MAC  --- 0 message 32 [0 ffffffff 1 800] ------- [1:255 -1:255 32 0] 
r 0.031441163 _13_ RTR  --- 0 message 32 [0 ffffffff 1 800] ------- [1:255 -1:255 32 0] 
r 0.031441475 _17_ RTR  --- 0 message 32 [0 ffffffff 1 800] ------- [1:255 -1:255 32 0] 
r 0.031441591 _18_ RTR  --- 0 message 32 [0 ffffffff 1 800] ------- [1:255 -1:255 32 0] 
s 0.093211434 _12_ RTR  --- 1 message 32 [0 0 0 0] ------- [12:255 -1:255 32 0] 
s 0.093366434 _12_ MAC  --- 1 message 90 [0 ffffffff c 800] ------- [12:255 -1:255 32 0] 
r 0.094086705 _2_ MAC  --- 1 message 32 [0 ffffffff c 800] ------- [12:255 -1:255 32 0] 
r 0.094087206 _3_ MAC  --- 1 message 32 [0 ffffffff c 800] ------- [12:255 -1:255 32 0] 
r 0.094087227 _13_ MAC  --- 1 message 32 [0 ffffffff c 800] ------- [12:255 -1:255 32 0] 
r 0.094111705 _2_ RTR  --- 1 message 32 [0 ffffffff c 800] ------- [12:255 -1:255 32 0] 
r 0.094112206 _3_ RTR  --- 1 message 32 [0 ffffffff c 800] ------- [12:255 -1:255 32 0] 
r 0.094112227 _13_ RTR  --- 1 message 32 [0 ffffffff c 800] ------- [12:255 -1:255 32 0] 
s 0.180287418 _2_ RTR  --- 2 message 32 [0 0 0 0] ------- [2:255 -1:255 32 0] 
s 0.180882418 _2_ MAC  --- 2 message 90 [0 ffffffff 2 800] ------- [2:255 -1:255 32 0] 
r 0.181602689 _12_ MAC  --- 2 message 32 [0 ffffffff 2 800] ------- [2:255 -1:255 32 0] 
r 0.181627689 _12_ RTR  --- 2 message 32 [0 ffffffff 2 800] ------- [2:255 -1:255 32 0] 
s 0.197191187 _18_ RTR  --- 3 message 32 [0 0 0 0] ------- [18:255 -1:255 32 0] 
s 0.197326187 _18_ MAC  --- 3 message 90 [0 ffffffff 12 800] ------- [18:255 -1:255 32 0] 
r 0.198046782 _13_ MAC  --- 3 message 32 [0 ffffffff 12 800] ------- [18:255 -1:255 32 0] 
r 0.198046862 _1_ MAC  --- 3 message 32 [0 ffffffff 12 800] ------- [18:255 -1:255 32 0] 
r 0.198046871 _4_ MAC  --- 3 message 32 [0 ffffffff 12 800] ------- [18:255 -1:255 32 0] 
r 0.198046901 _17_ MAC  --- 3 message 32 [0 ffffffff 12 800] ------- [18:255 -1:255 32 0] 
r 0.198046928 _6_ MAC  --- 3 message 32 [0 ffffffff 12 800] ------- [18:255 -1:255 32 0] 
r 0.198046930 _7_ MAC  --- 3 message 32 [0 ffffffff 12 800] ------- [18:255 -1:255 32 0] 
r 0.198071782 _13_ RTR  --- 3 message 32 [0 ffffffff 12 800] ------- [18:255 -1:255 32 0] 
r 0.198071862 _1_ RTR  --- 3 message 32 [0 ffffffff 12 800] ------- [18:255 -1:255 32 0] 
r 0.198071871 _4_ RTR  --- 3 message 32 [0 ffffffff 12 800] ------- [18:255 -1:255 32 0] 
r 0.198071901 _17_ RTR  --- 3 message 32 [0 ffffffff 12 800] ------- [18:255 -1:255 32 0] 
r 0.198071928 _6_ RTR  --- 3 message 32 [0 ffffffff 12 800] ------- [18:255 -1:255 32 0] 
r 0.198071930 _7_ RTR  --- 3 message 32 [0 ffffffff 12 800] ------- [18:255 -1:255 32 0] 
s 0.233566771 _14_ RTR  --- 4 message 32 [0 0 0 0] ------- [14:255 -1:255 32 0] 
s 0.233921771 _14_ MAC  --- 4 message 90 [0 ffffffff e 800] ------- [14:255 -1:255 32 0] 
r 0.234642204 _16_ MAC  --- 4 message 32 [0 ffffffff e 800] ------- [14:255 -1:255 32 0] 
r 0.234642210 _15_ MAC  --- 4 message 32 [0 ffffffff e 800] ------- [14:255 -1:255 32 0] 
r 0.234642421 _8_ MAC  --- 4 message 32 [0 ffffffff e 800] ------- [14:255 -1:255 32 0] 
r 0.234667204 _16_ RTR  --- 4 message 32 [0 ffffffff e 800] ------- [14:255 -1:255 32 0] 
r 0.234667210 _15_ RTR  --- 4 message 32 [0 ffffffff e 800] ------- [14:255 -1:255 32 0] 
r 0.234667421 _8_ RTR  --- 4 message 32 [0 ffffffff e 800] ------- [14:255 -1:255 32 0] 
v 0.29999999999999999 eval {set sim_annotation {CAR-1 send the registeration deatils to TA }}
v 0.29999999999999999 eval {set sim_annotation {CAR-2 send the registeration deatils to TA }}
v 0.29999999999999999 eval {set sim_annotation {CAR-3 send the registeration deatils to TA }}
v 0.29999999999999999 eval {set sim_annotation {CAR-4 send the registeration deatils to TA }}
s 0.330860751 _11_ RTR  --- 5 message 32 [0 0 0 0] ------- [11:255 -1:255 32 0] 
s 0.330935751 _11_ MAC  --- 5 message 90 [0 ffffffff b 800] ------- [11:255 -1:255 32 0] 
r 0.331655931 _27_ MAC  --- 5 message 32 [0 ffffffff b 800] ------- [11:255 -1:255 32 0] 
r 0.331656093 _19_ MAC  --- 5 message 32 [0 ffffffff b 800] ------- [11:255 -1:255 32 0] 
r 0.331656424 _26_ MAC  --- 5 message 32 [0 ffffffff b 800] ------- [11:255 -1:255 32 0] 
r 0.331680931 _27_ RTR  --- 5 message 32 [0 ffffffff b 800] ------- [11:255 -1:255 32 0] 
r 0.331681093 _19_ RTR  --- 5 message 32 [0 ffffffff b 800] ------- [11:255 -1:255 32 0] 
r 0.331681424 _26_ RTR  --- 5 message 32 [0 ffffffff b 800] ------- [11:255 -1:255 32 0] 
s 0.352228749 _17_ RTR  --- 6 message 32 [0 0 0 0] ------- [17:255 -1:255 32 0] 
s 0.352523749 _17_ MAC  --- 6 message 90 [0 ffffffff 11 800] ------- [17:255 -1:255 32 0] 
r 0.353244238 _16_ MAC  --- 6 message 32 [0 ffffffff 11 800] ------- [17:255 -1:255 32 0] 
r 0.353244274 _7_ MAC  --- 6 message 32 [0 ffffffff 11 800] ------- [17:255 -1:255 32 0] 
r 0.353244308 _1_ MAC  --- 6 message 32 [0 ffffffff 11 800] ------- [17:255 -1:255 32 0] 
r 0.353244463 _18_ MAC  --- 6 message 32 [0 ffffffff 11 800] ------- [17:255 -1:255 32 0] 
r 0.353244494 _13_ MAC  --- 6 message 32 [0 ffffffff 11 800] ------- [17:255 -1:255 32 0] 
r 0.353269238 _16_ RTR  --- 6 message 32 [0 ffffffff 11 800] ------- [17:255 -1:255 32 0] 
r 0.353269274 _7_ RTR  --- 6 message 32 [0 ffffffff 11 800] ------- [17:255 -1:255 32 0] 
r 0.353269308 _1_ RTR  --- 6 message 32 [0 ffffffff 11 800] ------- [17:255 -1:255 32 0] 
r 0.353269463 _18_ RTR  --- 6 message 32 [0 ffffffff 11 800] ------- [17:255 -1:255 32 0] 
r 0.353269494 _13_ RTR  --- 6 message 32 [0 ffffffff 11 800] ------- [17:255 -1:255 32 0] 
M 0.40000 13 (868.50, 622.34, 0.00), (874.50, 47.08), 200.00
M 0.40000 15 (350.67, 359.00, 0.00), (764.29, 370.34), 50.00
M 0.40000 14 (482.33, 362.84, 0.00), (764.29, 370.34), 75.00
M 0.40000 16 (612.26, 362.21, 0.00), (764.29, 370.34), 200.00
M 0.40000 12 (868.84, 860.16, 0.00), (868.84, 616.52), 200.00
M 0.40000 20 (1258.02, 547.29, 0.00), (1122.03, 542.68), 200.00
M 0.40000 21 (1405.33, 539.85, 0.00), (1122.03, 542.68), 75.00
M 0.40000 22 (1541.90, 539.52, 0.00), (1122.03, 542.68), 50.00
M 0.40000 19 (1048.32, 91.18, 0.00), (1048.32, 195.99), 100.00
M 0.40000 27 (1048.32, 21.18, 0.00), (1048.32, 123.99), 100.00
M 0.40000 26 (1047.45, 197.34, 0.00), (1048.32, 267.99), 100.00
s 0.472476674 _7_ RTR  --- 7 message 32 [0 0 0 0] ------- [7:255 -1:255 32 0] 
s 0.472791674 _7_ MAC  --- 7 message 90 [0 ffffffff 7 800] ------- [7:255 -1:255 32 0] 
r 0.473512095 _25_ MAC  --- 7 message 32 [0 ffffffff 7 800] ------- [7:255 -1:255 32 0] 
r 0.473512199 _17_ MAC  --- 7 message 32 [0 ffffffff 7 800] ------- [7:255 -1:255 32 0] 
r 0.473512274 _16_ MAC  --- 7 message 32 [0 ffffffff 7 800] ------- [7:255 -1:255 32 0] 
r 0.473512417 _18_ MAC  --- 7 message 32 [0 ffffffff 7 800] ------- [7:255 -1:255 32 0] 
r 0.473537095 _25_ RTR  --- 7 message 32 [0 ffffffff 7 800] ------- [7:255 -1:255 32 0] 
r 0.473537199 _17_ RTR  --- 7 message 32 [0 ffffffff 7 800] ------- [7:255 -1:255 32 0] 
r 0.473537274 _16_ RTR  --- 7 message 32 [0 ffffffff 7 800] ------- [7:255 -1:255 32 0] 
r 0.473537417 _18_ RTR  --- 7 message 32 [0 ffffffff 7 800] ------- [7:255 -1:255 32 0] 
s 0.523902855 _21_ RTR  --- 8 message 32 [0 0 0 0] ------- [21:255 -1:255 32 0] 
s 0.524457855 _21_ MAC  --- 8 message 90 [0 ffffffff 15 800] ------- [21:255 -1:255 32 0] 
r 0.525178321 _22_ MAC  --- 8 message 32 [0 ffffffff 15 800] ------- [21:255 -1:255 32 0] 
r 0.525178398 _20_ MAC  --- 8 message 32 [0 ffffffff 15 800] ------- [21:255 -1:255 32 0] 
r 0.525178515 _24_ MAC  --- 8 message 32 [0 ffffffff 15 800] ------- [21:255 -1:255 32 0] 
r 0.525178557 _5_ MAC  --- 8 message 32 [0 ffffffff 15 800] ------- [21:255 -1:255 32 0] 
r 0.525203321 _22_ RTR  --- 8 message 32 [0 ffffffff 15 800] ------- [21:255 -1:255 32 0] 
r 0.525203398 _20_ RTR  --- 8 message 32 [0 ffffffff 15 800] ------- [21:255 -1:255 32 0] 
r 0.525203515 _24_ RTR  --- 8 message 32 [0 ffffffff 15 800] ------- [21:255 -1:255 32 0] 
r 0.525203557 _5_ RTR  --- 8 message 32 [0 ffffffff 15 800] ------- [21:255 -1:255 32 0] 
s 0.627918183 _9_ RTR  --- 9 message 32 [0 0 0 0] ------- [9:255 -1:255 32 0] 
s 0.628113183 _9_ MAC  --- 9 message 90 [0 ffffffff 9 800] ------- [9:255 -1:255 32 0] 
r 0.628834015 _22_ MAC  --- 9 message 32 [0 ffffffff 9 800] ------- [9:255 -1:255 32 0] 
r 0.628859015 _22_ RTR  --- 9 message 32 [0 ffffffff 9 800] ------- [9:255 -1:255 32 0] 
s 0.630840760 _5_ RTR  --- 10 message 32 [0 0 0 0] ------- [5:255 -1:255 32 0] 
s 0.631015760 _5_ MAC  --- 10 message 90 [0 ffffffff 5 800] ------- [5:255 -1:255 32 0] 
r 0.631736063 _22_ MAC  --- 10 message 32 [0 ffffffff 5 800] ------- [5:255 -1:255 32 0] 
r 0.631736313 _24_ MAC  --- 10 message 32 [0 ffffffff 5 800] ------- [5:255 -1:255 32 0] 
r 0.631736488 _21_ MAC  --- 10 message 32 [0 ffffffff 5 800] ------- [5:255 -1:255 32 0] 
r 0.631761063 _22_ RTR  --- 10 message 32 [0 ffffffff 5 800] ------- [5:255 -1:255 32 0] 
r 0.631761313 _24_ RTR  --- 10 message 32 [0 ffffffff 5 800] ------- [5:255 -1:255 32 0] 
r 0.631761488 _21_ RTR  --- 10 message 32 [0 ffffffff 5 800] ------- [5:255 -1:255 32 0] 
s 0.698364053 _20_ RTR  --- 11 message 32 [0 0 0 0] ------- [20:255 -1:255 32 0] 
s 0.698499053 _20_ MAC  --- 11 message 90 [0 ffffffff 14 800] ------- [20:255 -1:255 32 0] 
r 0.699219440 _4_ MAC  --- 11 message 32 [0 ffffffff 14 800] ------- [20:255 -1:255 32 0] 
r 0.699219617 _23_ MAC  --- 11 message 32 [0 ffffffff 14 800] ------- [20:255 -1:255 32 0] 
r 0.699219668 _21_ MAC  --- 11 message 32 [0 ffffffff 14 800] ------- [20:255 -1:255 32 0] 
r 0.699244440 _4_ RTR  --- 11 message 32 [0 ffffffff 14 800] ------- [20:255 -1:255 32 0] 
r 0.699244617 _23_ RTR  --- 11 message 32 [0 ffffffff 14 800] ------- [20:255 -1:255 32 0] 
r 0.699244668 _21_ RTR  --- 11 message 32 [0 ffffffff 14 800] ------- [20:255 -1:255 32 0] 
s 0.826117815 _22_ RTR  --- 12 message 32 [0 0 0 0] ------- [22:255 -1:255 32 0] 
s 0.826252815 _22_ MAC  --- 12 message 90 [0 ffffffff 16 800] ------- [22:255 -1:255 32 0] 
r 0.826973142 _5_ MAC  --- 12 message 32 [0 ffffffff 16 800] ------- [22:255 -1:255 32 0] 
r 0.826973306 _21_ MAC  --- 12 message 32 [0 ffffffff 16 800] ------- [22:255 -1:255 32 0] 
r 0.826973424 _24_ MAC  --- 12 message 32 [0 ffffffff 16 800] ------- [22:255 -1:255 32 0] 
r 0.826998142 _5_ RTR  --- 12 message 32 [0 ffffffff 16 800] ------- [22:255 -1:255 32 0] 
r 0.826998306 _21_ RTR  --- 12 message 32 [0 ffffffff 16 800] ------- [22:255 -1:255 32 0] 
r 0.826998424 _24_ RTR  --- 12 message 32 [0 ffffffff 16 800] ------- [22:255 -1:255 32 0] 
s 0.850874058 _16_ RTR  --- 13 message 32 [0 0 0 0] ------- [16:255 -1:255 32 0] 
s 0.851389058 _16_ MAC  --- 13 message 90 [0 ffffffff 10 800] ------- [16:255 -1:255 32 0] 
r 0.852109336 _17_ MAC  --- 13 message 32 [0 ffffffff 10 800] ------- [16:255 -1:255 32 0] 
r 0.852109441 _7_ MAC  --- 13 message 32 [0 ffffffff 10 800] ------- [16:255 -1:255 32 0] 
r 0.852109679 _14_ MAC  --- 13 message 32 [0 ffffffff 10 800] ------- [16:255 -1:255 32 0] 
r 0.852109695 _25_ MAC  --- 13 message 32 [0 ffffffff 10 800] ------- [16:255 -1:255 32 0] 
r 0.852109841 _13_ MAC  --- 13 message 32 [0 ffffffff 10 800] ------- [16:255 -1:255 32 0] 
r 0.852134336 _17_ RTR  --- 13 message 32 [0 ffffffff 10 800] ------- [16:255 -1:255 32 0] 
r 0.852134441 _7_ RTR  --- 13 message 32 [0 ffffffff 10 800] ------- [16:255 -1:255 32 0] 
r 0.852134679 _14_ RTR  --- 13 message 32 [0 ffffffff 10 800] ------- [16:255 -1:255 32 0] 
r 0.852134695 _25_ RTR  --- 13 message 32 [0 ffffffff 10 800] ------- [16:255 -1:255 32 0] 
r 0.852134841 _13_ RTR  --- 13 message 32 [0 ffffffff 10 800] ------- [16:255 -1:255 32 0] 
s 0.888982023 _3_ RTR  --- 14 message 32 [0 0 0 0] ------- [3:255 -1:255 32 0] 
s 0.889357023 _3_ MAC  --- 14 message 90 [0 ffffffff 3 800] ------- [3:255 -1:255 32 0] 
r 0.890077730 _23_ MAC  --- 14 message 32 [0 ffffffff 3 800] ------- [3:255 -1:255 32 0] 
r 0.890102730 _23_ RTR  --- 14 message 32 [0 ffffffff 3 800] ------- [3:255 -1:255 32 0] 
s 0.935967911 _24_ RTR  --- 15 message 32 [0 0 0 0] ------- [24:255 -1:255 32 0] 
s 0.936262911 _24_ MAC  --- 15 message 90 [0 ffffffff 18 800] ------- [24:255 -1:255 32 0] 
r 0.936983464 _5_ MAC  --- 15 message 32 [0 ffffffff 18 800] ------- [24:255 -1:255 32 0] 
r 0.936983517 _22_ MAC  --- 15 message 32 [0 ffffffff 18 800] ------- [24:255 -1:255 32 0] 
r 0.936983621 _21_ MAC  --- 15 message 32 [0 ffffffff 18 800] ------- [24:255 -1:255 32 0] 
r 0.937008464 _5_ RTR  --- 15 message 32 [0 ffffffff 18 800] ------- [24:255 -1:255 32 0] 
r 0.937008517 _22_ RTR  --- 15 message 32 [0 ffffffff 18 800] ------- [24:255 -1:255 32 0] 
r 0.937008621 _21_ RTR  --- 15 message 32 [0 ffffffff 18 800] ------- [24:255 -1:255 32 0] 
s 1.044254488 _23_ RTR  --- 16 message 32 [0 0 0 0] ------- [23:255 -1:255 32 0] 
s 1.044729488 _23_ MAC  --- 16 message 90 [0 ffffffff 17 800] ------- [23:255 -1:255 32 0] 
r 1.045449999 _4_ MAC  --- 16 message 32 [0 ffffffff 17 800] ------- [23:255 -1:255 32 0] 
r 1.045450108 _20_ MAC  --- 16 message 32 [0 ffffffff 17 800] ------- [23:255 -1:255 32 0] 
r 1.045450194 _3_ MAC  --- 16 message 32 [0 ffffffff 17 800] ------- [23:255 -1:255 32 0] 
r 1.045450266 _21_ MAC  --- 16 message 32 [0 ffffffff 17 800] ------- [23:255 -1:255 32 0] 
r 1.045474999 _4_ RTR  --- 16 message 32 [0 ffffffff 17 800] ------- [23:255 -1:255 32 0] 
r 1.045475108 _20_ RTR  --- 16 message 32 [0 ffffffff 17 800] ------- [23:255 -1:255 32 0] 
r 1.045475194 _3_ RTR  --- 16 message 32 [0 ffffffff 17 800] ------- [23:255 -1:255 32 0] 
r 1.045475266 _21_ RTR  --- 16 message 32 [0 ffffffff 17 800] ------- [23:255 -1:255 32 0] 
s 1.100000000 _24_ AGT  --- 17 cbr 1000 [0 0 0 0] ------- [24:0 21:1 32 0] [0] 0 0
r 1.100000000 _24_ RTR  --- 17 cbr 1000 [0 0 0 0] ------- [24:0 21:1 32 0] [0] 0 0
s 1.100000000 _24_ RTR  --- 17 cbr 1020 [0 0 0 0] ------- [24:0 21:1 32 21] [0] 0 0
s 1.100000000 _23_ AGT  --- 18 cbr 1000 [0 0 0 0] ------- [23:4 21:2 32 0] [0] 0 0
r 1.100000000 _23_ RTR  --- 18 cbr 1000 [0 0 0 0] ------- [23:4 21:2 32 0] [0] 0 0
s 1.100215000 _24_ MAC  --- 0 ARP 86 [0 ffffffff 18 806] ------- [REQUEST 24/24 0/21]
r 1.100903553 _5_ MAC  --- 0 ARP 28 [0 ffffffff 18 806] ------- [REQUEST 24/24 0/21]
r 1.100903601 _22_ MAC  --- 0 ARP 28 [0 ffffffff 18 806] ------- [REQUEST 24/24 0/21]
r 1.100903733 _21_ MAC  --- 0 ARP 28 [0 ffffffff 18 806] ------- [REQUEST 24/24 0/21]
s 1.100958733 _21_ MAC  --- 0 RTS 44 [52e 18 15 0] 
r 1.101311465 _24_ MAC  --- 0 RTS 44 [52e 18 15 0] 
s 1.101321465 _24_ MAC  --- 0 CTS 38 [3f4 15 0 0] 
r 1.101626198 _21_ MAC  --- 0 CTS 38 [3f4 15 0 0] 
s 1.101636198 _21_ MAC  --- 0 ARP 86 [13a 18 15 806] ------- [REPLY 21/21 24/24]
r 1.102324931 _24_ MAC  --- 0 ARP 28 [13a 18 15 806] ------- [REPLY 21/21 24/24]
s 1.102334931 _24_ MAC  --- 0 ACK 38 [0 15 0 0] 
r 1.102639664 _21_ MAC  --- 0 ACK 38 [0 15 0 0] 
s 1.102908931 _24_ MAC  --- 0 RTS 44 [242e 15 18 0] 
r 1.103261664 _21_ MAC  --- 0 RTS 44 [242e 15 18 0] 
s 1.103271664 _21_ MAC  --- 0 CTS 38 [22f4 18 0 0] 
r 1.103576397 _24_ MAC  --- 0 CTS 38 [22f4 18 0 0] 
s 1.103586397 _24_ MAC  --- 17 cbr 1078 [13a 15 18 800] ------- [24:0 21:1 32 21] [0] 0 0
s 1.108000000 _24_ AGT  --- 19 cbr 1000 [0 0 0 0] ------- [24:0 21:1 32 0] [1] 0 0
r 1.108000000 _24_ RTR  --- 19 cbr 1000 [0 0 0 0] ------- [24:0 21:1 32 0] [1] 0 0
s 1.108000000 _24_ RTR  --- 19 cbr 1020 [0 0 0 0] ------- [24:0 21:1 32 21] [1] 0 0
s 1.108000000 _23_ AGT  --- 20 cbr 1000 [0 0 0 0] ------- [23:4 21:2 32 0] [1] 0 0
r 1.108000000 _23_ RTR  --- 20 cbr 1000 [0 0 0 0] ------- [23:4 21:2 32 0] [1] 0 0
r 1.112211130 _21_ MAC  --- 17 cbr 1020 [13a 15 18 800] ------- [24:0 21:1 32 21] [0] 1 0
s 1.112221130 _21_ MAC  --- 0 ACK 38 [0 18 0 0] 
r 1.112236130 _21_ AGT  --- 17 cbr 1020 [13a 15 18 800] ------- [24:0 21:1 32 21] [0] 1 0
r 1.112525864 _24_ MAC  --- 0 ACK 38 [0 18 0 0] 
s 1.112995864 _24_ MAC  --- 0 RTS 44 [242e 15 18 0] 
r 1.113348599 _21_ MAC  --- 0 RTS 44 [242e 15 18 0] 
s 1.113358599 _21_ MAC  --- 0 CTS 38 [22f4 18 0 0] 
r 1.113663333 _24_ MAC  --- 0 CTS 38 [22f4 18 0 0] 
s 1.113673333 _24_ MAC  --- 19 cbr 1078 [13a 15 18 800] ------- [24:0 21:1 32 21] [1] 0 0
s 1.116000000 _24_ AGT  --- 22 cbr 1000 [0 0 0 0] ------- [24:0 21:1 32 0] [2] 0 0
r 1.116000000 _24_ RTR  --- 22 cbr 1000 [0 0 0 0] ------- [24:0 21:1 32 0] [2] 0 0
s 1.116000000 _24_ RTR  --- 22 cbr 1020 [0 0 0 0] ------- [24:0 21:1 32 21] [2] 0 0
s 1.116000000 _23_ AGT  --- 23 cbr 1000 [0 0 0 0] ------- [23:4 21:2 32 0] [2] 0 0
r 1.116000000 _23_ RTR  --- 23 cbr 1000 [0 0 0 0] ------- [23:4 21:2 32 0] [2] 0 0
s 1.120561388 _0_ RTR  --- 21 message 32 [0 0 0 0] ------- [0:255 -1:255 32 0] 
s 1.121136388 _0_ MAC  --- 21 message 90 [0 ffffffff 0 800] ------- [0:255 -1:255 32 0] 
r 1.122298068 _21_ MAC  --- 19 cbr 1020 [13a 15 18 800] ------- [24:0 21:1 32 21] [1] 1 0
s 1.122308068 _21_ MAC  --- 0 ACK 38 [0 18 0 0] 
r 1.122323068 _21_ AGT  --- 19 cbr 1020 [13a 15 18 800] ------- [24:0 21:1 32 21] [1] 1 0
r 1.122612803 _24_ MAC  --- 0 ACK 38 [0 18 0 0] 
s 1.122822803 _24_ MAC  --- 0 RTS 44 [242e 15 18 0] 
r 1.123175539 _21_ MAC  --- 0 RTS 44 [242e 15 18 0] 
s 1.123185539 _21_ MAC  --- 0 CTS 38 [22f4 18 0 0] 
r 1.123490275 _24_ MAC  --- 0 CTS 38 [22f4 18 0 0] 
s 1.123500275 _24_ MAC  --- 22 cbr 1078 [13a 15 18 800] ------- [24:0 21:1 32 21] [2] 0 0
s 1.124000000 _24_ AGT  --- 24 cbr 1000 [0 0 0 0] ------- [24:0 21:1 32 0] [3] 0 0
r 1.124000000 _24_ RTR  --- 24 cbr 1000 [0 0 0 0] ------- [24:0 21:1 32 0] [3] 0 0
s 1.124000000 _24_ RTR  --- 24 cbr 1020 [0 0 0 0] ------- [24:0 21:1 32 21] [3] 0 0
s 1.124000000 _23_ AGT  --- 25 cbr 1000 [0 0 0 0] ------- [23:4 21:2 32 0] [3] 0 0
r 1.124000000 _23_ RTR  --- 25 cbr 1000 [0 0 0 0] ------- [23:4 21:2 32 0] [3] 0 0
s 1.132000000 _24_ AGT  --- 26 cbr 1000 [0 0 0 0] ------- [24:0 21:1 32 0] [4] 0 0
r 1.132000000 _24_ RTR  --- 26 cbr 1000 [0 0 0 0] ------- [24:0 21:1 32 0] [4] 0 0
s 1.132000000 _24_ RTR  --- 26 cbr 1020 [0 0 0 0] ------- [24:0 21:1 32 21] [4] 0 0
s 1.132000000 _23_ AGT  --- 27 cbr 1000 [0 0 0 0] ------- [23:4 21:2 32 0] [4] 0 0
r 1.132000000 _23_ RTR  --- 27 cbr 1000 [0 0 0 0] ------- [23:4 21:2 32 0] [4] 0 0
r 1.132125011 _21_ MAC  --- 22 cbr 1020 [13a 15 18 800] ------- [24:0 21:1 32 21] [2] 1 0
s 1.132135011 _21_ MAC  --- 0 ACK 38 [0 18 0 0] 
r 1.132150011 _21_ AGT  --- 22 cbr 1020 [13a 15 18 800] ------- [24:0 21:1 32 21] [2] 1 0
r 1.132439748 _24_ MAC  --- 0 ACK 38 [0 18 0 0] 
s 1.132509748 _24_ MAC  --- 0 RTS 44 [242e 15 18 0] 
r 1.132862486 _21_ MAC  --- 0 RTS 44 [242e 15 18 0] 
s 1.132872486 _21_ MAC  --- 0 CTS 38 [22f4 18 0 0] 
r 1.133177223 _24_ MAC  --- 0 CTS 38 [22f4 18 0 0] 
s 1.133187223 _24_ MAC  --- 24 cbr 1078 [13a 15 18 800] ------- [24:0 21:1 32 21] [3] 0 0
s 1.140000000 _24_ AGT  --- 28 cbr 1000 [0 0 0 0] ------- [24:0 21:1 32 0] [5] 0 0
r 1.140000000 _24_ RTR  --- 28 cbr 1000 [0 0 0 0] ------- [24:0 21:1 32 0] [5] 0 0
s 1.140000000 _24_ RTR  --- 28 cbr 1020 [0 0 0 0] ------- [24:0 21:1 32 21] [5] 0 0
s 1.140000000 _23_ AGT  --- 29 cbr 1000 [0 0 0 0] ------- [23:4 21:2 32 0] [5] 0 0
r 1.140000000 _23_ RTR  --- 29 cbr 1000 [0 0 0 0] ------- [23:4 21:2 32 0] [5] 0 0
D 1.140000000 _23_ RTR  IFQ 18 cbr 1020 [0 0 0 0] ------- [23:4 21:2 32 0] [0] 0 0
r 1.141811960 _21_ MAC  --- 24 cbr 1020 [13a 15 18 800] ------- [24:0 21:1 32 21] [3] 1 0
s 1.141821960 _21_ MAC  --- 0 ACK 38 [0 18 0 0] 
r 1.141836960 _21_ AGT  --- 24 cbr 1020 [13a 15 18 800] ------- [24:0 21:1 32 21] [3] 1 0
r 1.142126699 _24_ MAC  --- 0 ACK 38 [0 18 0 0] 
s 1.142436699 _24_ MAC  --- 0 RTS 44 [242e 15 18 0] 
r 1.142789438 _21_ MAC  --- 0 RTS 44 [242e 15 18 0] 
s 1.142799438 _21_ MAC  --- 0 CTS 38 [22f4 18 0 0] 
r 1.143104176 _24_ MAC  --- 0 CTS 38 [22f4 18 0 0] 
s 1.143114176 _24_ MAC  --- 26 cbr 1078 [13a 15 18 800] ------- [24:0 21:1 32 21] [4] 0 0
s 1.148000000 _24_ AGT  --- 30 cbr 1000 [0 0 0 0] ------- [24:0 21:1 32 0] [6] 0 0
r 1.148000000 _24_ RTR  --- 30 cbr 1000 [0 0 0 0] ------- [24:0 21:1 32 0] [6] 0 0
s 1.148000000 _24_ RTR  --- 30 cbr 1020 [0 0 0 0] ------- [24:0 21:1 32 21] [6] 0 0
s 1.148000000 _23_ AGT  --- 31 cbr 1000 [0 0 0 0] ------- [23:4 21:2 32 0] [6] 0 0
r 1.148000000 _23_ RTR  --- 31 cbr 1000 [0 0 0 0] ------- [23:4 21:2 32 0] [6] 0 0
D 1.148000000 _23_ RTR  IFQ 20 cbr 1020 [0 0 0 0] ------- [23:4 21:2 32 0] [1] 0 0
r 1.151738915 _21_ MAC  --- 26 cbr 1020 [13a 15 18 800] ------- [24:0 21:1 32 21] [4] 1 0
s 1.151748915 _21_ MAC  --- 0 ACK 38 [0 18 0 0] 
r 1.151763915 _21_ AGT  --- 26 cbr 1020 [13a 15 18 800] ------- [24:0 21:1 32 21] [4] 1 0
r 1.152053655 _24_ MAC  --- 0 ACK 38 [0 18 0 0] 
s 1.152203655 _24_ MAC  --- 0 RTS 44 [242e 15 18 0] 
r 1.152556396 _21_ MAC  --- 0 RTS 44 [242e 15 18 0] 
s 1.152566396 _21_ MAC  --- 0 CTS 38 [22f4 18 0 0] 
r 1.152871136 _24_ MAC  --- 0 CTS 38 [22f4 18 0 0] 
s 1.152881136 _24_ MAC  --- 28 cbr 1078 [13a 15 18 800] ------- [24:0 21:1 32 21] [5] 0 0
s 1.156000000 _24_ AGT  --- 32 cbr 1000 [0 0 0 0] ------- [24:0 21:1 32 0] [7] 0 0
r 1.156000000 _24_ RTR  --- 32 cbr 1000 [0 0 0 0] ------- [24:0 21:1 32 0] [7] 0 0
s 1.156000000 _24_ RTR  --- 32 cbr 1020 [0 0 0 0] ------- [24:0 21:1 32 21] [7] 0 0
s 1.156000000 _23_ AGT  --- 33 cbr 1000 [0 0 0 0] ------- [23:4 21:2 32 0] [7] 0 0
r 1.156000000 _23_ RTR  --- 33 cbr 1000 [0 0 0 0] ------- [23:4 21:2 32 0] [7] 0 0
D 1.156000000 _23_ RTR  IFQ 23 cbr 1020 [0 0 0 0] ------- [23:4 21:2 32 0] [2] 0 0
r 1.161505876 _21_ MAC  --- 28 cbr 1020 [13a 15 18 800] ------- [24:0 21:1 32 21] [5] 1 0
s 1.161515876 _21_ MAC  --- 0 ACK 38 [0 18 0 0] 
r 1.161530876 _21_ AGT  --- 28 cbr 1020 [13a 15 18 800] ------- [24:0 21:1 32 21] [5] 1 0
r 1.161820618 _24_ MAC  --- 0 ACK 38 [0 18 0 0] 
s 1.161870618 _24_ MAC  --- 0 RTS 44 [242e 15 18 0] 
r 1.162223359 _21_ MAC  --- 0 RTS 44 [242e 15 18 0] 
s 1.162233359 _21_ MAC  --- 0 CTS 38 [22f4 18 0 0] 
r 1.162538101 _24_ MAC  --- 0 CTS 38 [22f4 18 0 0] 
s 1.162548101 _24_ MAC  --- 30 cbr 1078 [13a 15 18 800] ------- [24:0 21:1 32 21] [6] 0 0
s 1.164000000 _24_ AGT  --- 34 cbr 1000 [0 0 0 0] ------- [24:0 21:1 32 0] [8] 0 0
r 1.164000000 _24_ RTR  --- 34 cbr 1000 [0 0 0 0] ------- [24:0 21:1 32 0] [8] 0 0
s 1.164000000 _24_ RTR  --- 34 cbr 1020 [0 0 0 0] ------- [24:0 21:1 32 21] [8] 0 0
s 1.164000000 _23_ AGT  --- 35 cbr 1000 [0 0 0 0] ------- [23:4 21:2 32 0] [8] 0 0
r 1.164000000 _23_ RTR  --- 35 cbr 1000 [0 0 0 0] ------- [23:4 21:2 32 0] [8] 0 0
D 1.164000000 _23_ RTR  IFQ 25 cbr 1020 [0 0 0 0] ------- [23:4 21:2 32 0] [3] 0 0
r 1.171172843 _21_ MAC  --- 30 cbr 1020 [13a 15 18 800] ------- [24:0 21:1 32 21] [6] 1 0
s 1.171182843 _21_ MAC  --- 0 ACK 38 [0 18 0 0] 
r 1.171197843 _21_ AGT  --- 30 cbr 1020 [13a 15 18 800] ------- [24:0 21:1 32 21] [6] 1 0
r 1.171487585 _24_ MAC  --- 0 ACK 38 [0 18 0 0] 
s 1.171597585 _24_ MAC  --- 0 RTS 44 [242e 15 18 0] 
r 1.171950329 _21_ MAC  --- 0 RTS 44 [242e 15 18 0] 
s 1.171960329 _21_ MAC  --- 0 CTS 38 [22f4 18 0 0] 
s 1.172000000 _24_ AGT  --- 36 cbr 1000 [0 0 0 0] ------- [24:0 21:1 32 0] [9] 0 0
r 1.172000000 _24_ RTR  --- 36 cbr 1000 [0 0 0 0] ------- [24:0 21:1 32 0] [9] 0 0
s 1.172000000 _24_ RTR  --- 36 cbr 1020 [0 0 0 0] ------- [24:0 21:1 32 21] [9] 0 0
s 1.172000000 _23_ AGT  --- 37 cbr 1000 [0 0 0 0] ------- [23:4 21:2 32 0] [9] 0 0
r 1.172000000 _23_ RTR  --- 37 cbr 1000 [0 0 0 0] ------- [23:4 21:2 32 0] [9] 0 0
D 1.172000000 _23_ RTR  IFQ 27 cbr 1020 [0 0 0 0] ------- [23:4 21:2 32 0] [4] 0 0
r 1.172265072 _24_ MAC  --- 0 CTS 38 [22f4 18 0 0] 
s 1.172275072 _24_ MAC  --- 32 cbr 1078 [13a 15 18 800] ------- [24:0 21:1 32 21] [7] 0 0
s 1.180000000 _24_ AGT  --- 38 cbr 1000 [0 0 0 0] ------- [24:0 21:1 32 0] [10] 0 0
r 1.180000000 _24_ RTR  --- 38 cbr 1000 [0 0 0 0] ------- [24:0 21:1 32 0] [10] 0 0
s 1.180000000 _24_ RTR  --- 38 cbr 1020 [0 0 0 0] ------- [24:0 21:1 32 21] [10] 0 0
s 1.180000000 _23_ AGT  --- 39 cbr 1000 [0 0 0 0] ------- [23:4 21:2 32 0] [10] 0 0
r 1.180000000 _23_ RTR  --- 39 cbr 1000 [0 0 0 0] ------- [23:4 21:2 32 0] [10] 0 0
D 1.180000000 _23_ RTR  IFQ 29 cbr 1020 [0 0 0 0] ------- [23:4 21:2 32 0] [5] 0 0
r 1.180899815 _21_ MAC  --- 32 cbr 1020 [13a 15 18 800] ------- [24:0 21:1 32 21] [7] 1 0
s 1.180909815 _21_ MAC  --- 0 ACK 38 [0 18 0 0] 
r 1.180924815 _21_ AGT  --- 32 cbr 1020 [13a 15 18 800] ------- [24:0 21:1 32 21] [7] 1 0
r 1.181214559 _24_ MAC  --- 0 ACK 38 [0 18 0 0] 
s 1.181784559 _24_ MAC  --- 0 RTS 44 [242e 15 18 0] 
r 1.182137304 _21_ MAC  --- 0 RTS 44 [242e 15 18 0] 
s 1.182147304 _21_ MAC  --- 0 CTS 38 [22f4 18 0 0] 
r 1.182452048 _24_ MAC  --- 0 CTS 38 [22f4 18 0 0] 
s 1.182462048 _24_ MAC  --- 34 cbr 1078 [13a 15 18 800] ------- [24:0 21:1 32 21] [8] 0 0
s 1.188000000 _24_ AGT  --- 40 cbr 1000 [0 0 0 0] ------- [24:0 21:1 32 0] [11] 0 0
r 1.188000000 _24_ RTR  --- 40 cbr 1000 [0 0 0 0] ------- [24:0 21:1 32 0] [11] 0 0
s 1.188000000 _24_ RTR  --- 40 cbr 1020 [0 0 0 0] ------- [24:0 21:1 32 21] [11] 0 0
s 1.188000000 _23_ AGT  --- 41 cbr 1000 [0 0 0 0] ------- [23:4 21:2 32 0] [11] 0 0
r 1.188000000 _23_ RTR  --- 41 cbr 1000 [0 0 0 0] ------- [23:4 21:2 32 0] [11] 0 0
D 1.188000000 _23_ RTR  IFQ 31 cbr 1020 [0 0 0 0] ------- [23:4 21:2 32 0] [6] 0 0
r 1.191086793 _21_ MAC  --- 34 cbr 1020 [13a 15 18 800] ------- [24:0 21:1 32 21] [8] 1 0
s 1.191096793 _21_ MAC  --- 0 ACK 38 [0 18 0 0] 
r 1.191111793 _21_ AGT  --- 34 cbr 1020 [13a 15 18 800] ------- [24:0 21:1 32 21] [8] 1 0
r 1.191401539 _24_ MAC  --- 0 ACK 38 [0 18 0 0] 
s 1.192051539 _24_ MAC  --- 0 RTS 44 [242e 15 18 0] 
r 1.192404285 _21_ MAC  --- 0 RTS 44 [242e 15 18 0] 
s 1.192414285 _21_ MAC  --- 0 CTS 38 [22f4 18 0 0] 
r 1.192719031 _24_ MAC  --- 0 CTS 38 [22f4 18 0 0] 
s 1.192729031 _24_ MAC  --- 36 cbr 1078 [13a 15 18 800] ------- [24:0 21:1 32 21] [9] 0 0
s 1.196000000 _24_ AGT  --- 42 cbr 1000 [0 0 0 0] ------- [24:0 21:1 32 0] [12] 0 0
r 1.196000000 _24_ RTR  --- 42 cbr 1000 [0 0 0 0] ------- [24:0 21:1 32 0] [12] 0 0
s 1.196000000 _24_ RTR  --- 42 cbr 1020 [0 0 0 0] ------- [24:0 21:1 32 21] [12] 0 0
s 1.196000000 _23_ AGT  --- 43 cbr 1000 [0 0 0 0] ------- [23:4 21:2 32 0] [12] 0 0
r 1.196000000 _23_ RTR  --- 43 cbr 1000 [0 0 0 0] ------- [23:4 21:2 32 0] [12] 0 0
D 1.196000000 _23_ RTR  IFQ 33 cbr 1020 [0 0 0 0] ------- [23:4 21:2 32 0] [7] 0 0
r 1.201353777 _21_ MAC  --- 36 cbr 1020 [13a 15 18 800] ------- [24:0 21:1 32 21] [9] 1 0
s 1.201363777 _21_ MAC  --- 0 ACK 38 [0 18 0 0] 
r 1.201378777 _21_ AGT  --- 36 cbr 1020 [13a 15 18 800] ------- [24:0 21:1 32 21] [9] 1 0
r 1.201668525 _24_ MAC  --- 0 ACK 38 [0 18 0 0] 
s 1.202138525 _24_ MAC  --- 0 RTS 44 [242e 15 18 0] 
r 1.202491273 _21_ MAC  --- 0 RTS 44 [242e 15 18 0] 
s 1.202501273 _21_ MAC  --- 0 CTS 38 [22f4 18 0 0] 
r 1.202806020 _24_ MAC  --- 0 CTS 38 [22f4 18 0 0] 
s 1.202816020 _24_ MAC  --- 38 cbr 1078 [13a 15 18 800] ------- [24:0 21:1 32 21] [10] 0 0
s 1.204000000 _24_ AGT  --- 44 cbr 1000 [0 0 0 0] ------- [24:0 21:1 32 0] [13] 0 0
r 1.204000000 _24_ RTR  --- 44 cbr 1000 [0 0 0 0] ------- [24:0 21:1 32 0] [13] 0 0
s 1.204000000 _24_ RTR  --- 44 cbr 1020 [0 0 0 0] ------- [24:0 21:1 32 21] [13] 0 0
s 1.204000000 _23_ AGT  --- 45 cbr 1000 [0 0 0 0] ------- [23:4 21:2 32 0] [13] 0 0
r 1.204000000 _23_ RTR  --- 45 cbr 1000 [0 0 0 0] ------- [23:4 21:2 32 0] [13] 0 0
D 1.204000000 _23_ RTR  IFQ 35 cbr 1020 [0 0 0 0] ------- [23:4 21:2 32 0] [8] 0 0
r 1.211440768 _21_ MAC  --- 38 cbr 1020 [13a 15 18 800] ------- [24:0 21:1 32 21] [10] 1 0
s 1.211450768 _21_ MAC  --- 0 ACK 38 [0 18 0 0] 
r 1.211465768 _21_ AGT  --- 38 cbr 1020 [13a 15 18 800] ------- [24:0 21:1 32 21] [10] 1 0
r 1.211755517 _24_ MAC  --- 0 ACK 38 [0 18 0 0] 
s 1.211825517 _24_ MAC  --- 0 RTS 44 [242e 15 18 0] 
s 1.212000000 _24_ AGT  --- 46 cbr 1000 [0 0 0 0] ------- [24:0 21:1 32 0] [14] 0 0
r 1.212000000 _24_ RTR  --- 46 cbr 1000 [0 0 0 0] ------- [24:0 21:1 32 0] [14] 0 0
s 1.212000000 _24_ RTR  --- 46 cbr 1020 [0 0 0 0] ------- [24:0 21:1 32 21] [14] 0 0
s 1.212000000 _23_ AGT  --- 47 cbr 1000 [0 0 0 0] ------- [23:4 21:2 32 0] [14] 0 0
r 1.212000000 _23_ RTR  --- 47 cbr 1000 [0 0 0 0] ------- [23:4 21:2 32 0] [14] 0 0
D 1.212000000 _23_ RTR  IFQ 37 cbr 1020 [0 0 0 0] ------- [23:4 21:2 32 0] [9] 0 0
r 1.212178266 _21_ MAC  --- 0 RTS 44 [242e 15 18 0] 
s 1.212188266 _21_ MAC  --- 0 CTS 38 [22f4 18 0 0] 
r 1.212493015 _24_ MAC  --- 0 CTS 38 [22f4 18 0 0] 
s 1.212503015 _24_ MAC  --- 40 cbr 1078 [13a 15 18 800] ------- [24:0 21:1 32 21] [11] 0 0
s 1.220000000 _24_ AGT  --- 48 cbr 1000 [0 0 0 0] ------- [24:0 21:1 32 0] [15] 0 0
r 1.220000000 _24_ RTR  --- 48 cbr 1000 [0 0 0 0] ------- [24:0 21:1 32 0] [15] 0 0
s 1.220000000 _24_ RTR  --- 48 cbr 1020 [0 0 0 0] ------- [24:0 21:1 32 21] [15] 0 0
s 1.220000000 _23_ AGT  --- 49 cbr 1000 [0 0 0 0] ------- [23:4 21:2 32 0] [15] 0 0
r 1.220000000 _23_ RTR  --- 49 cbr 1000 [0 0 0 0] ------- [23:4 21:2 32 0] [15] 0 0
D 1.220000000 _23_ RTR  IFQ 39 cbr 1020 [0 0 0 0] ------- [23:4 21:2 32 0] [10] 0 0
r 1.221127764 _21_ MAC  --- 40 cbr 1020 [13a 15 18 800] ------- [24:0 21:1 32 21] [11] 1 0
s 1.221137764 _21_ MAC  --- 0 ACK 38 [0 18 0 0] 
r 1.221152764 _21_ AGT  --- 40 cbr 1020 [13a 15 18 800] ------- [24:0 21:1 32 21] [11] 1 0
r 1.221442515 _24_ MAC  --- 0 ACK 38 [0 18 0 0] 
s 1.221512515 _24_ MAC  --- 0 RTS 44 [242e 15 18 0] 
r 1.221865265 _21_ MAC  --- 0 RTS 44 [242e 15 18 0] 
s 1.221875265 _21_ MAC  --- 0 CTS 38 [22f4 18 0 0] 
r 1.222180016 _24_ MAC  --- 0 CTS 38 [22f4 18 0 0] 
s 1.222190016 _24_ MAC  --- 42 cbr 1078 [13a 15 18 800] ------- [24:0 21:1 32 21] [12] 0 0
s 1.228000000 _24_ AGT  --- 50 cbr 1000 [0 0 0 0] ------- [24:0 21:1 32 0] [16] 0 0
r 1.228000000 _24_ RTR  --- 50 cbr 1000 [0 0 0 0] ------- [24:0 21:1 32 0] [16] 0 0
s 1.228000000 _24_ RTR  --- 50 cbr 1020 [0 0 0 0] ------- [24:0 21:1 32 21] [16] 0 0